 Entering Gaussian System, Link 0=g16
 Initial command:
 /sw/arch/Centos8/EB_production/2021/software/Gaussian/g16.c01/l1.exe "/scratch-local/matthak.1637222/Gau-3534477.inp" -scrdir="/scratch-local/matthak.1637222/"
 Entering Link 1 = /sw/arch/Centos8/EB_production/2021/software/Gaussian/g16.c01/l1.exe PID=   3534478.
  
 Copyright (c) 1988-2019, Gaussian, Inc.  All Rights Reserved.
  
 This is part of the Gaussian(R) 16 program.  It is based on
 the Gaussian(R) 09 system (copyright 2009, Gaussian, Inc.),
 the Gaussian(R) 03 system (copyright 2003, Gaussian, Inc.),
 the Gaussian(R) 98 system (copyright 1998, Gaussian, Inc.),
 the Gaussian(R) 94 system (copyright 1995, Gaussian, Inc.),
 the Gaussian 92(TM) system (copyright 1992, Gaussian, Inc.),
 the Gaussian 90(TM) system (copyright 1990, Gaussian, Inc.),
 the Gaussian 88(TM) system (copyright 1988, Gaussian, Inc.),
 the Gaussian 86(TM) system (copyright 1986, Carnegie Mellon
 University), and the Gaussian 82(TM) system (copyright 1983,
 Carnegie Mellon University). Gaussian is a federally registered
 trademark of Gaussian, Inc.
  
 This software contains proprietary and confidential information,
 including trade secrets, belonging to Gaussian, Inc.
  
 This software is provided under written license and may be
 used, copied, transmitted, or stored only in accord with that
 written license.
  
 The following legend is applicable only to US Government
 contracts under FAR:
  
                    RESTRICTED RIGHTS LEGEND
  
 Use, reproduction and disclosure by the US Government is
 subject to restrictions as set forth in subparagraphs (a)
 and (c) of the Commercial Computer Software - Restricted
 Rights clause in FAR 52.227-19.
  
 Gaussian, Inc.
 340 Quinnipiac St., Bldg. 40, Wallingford CT 06492
  
  
 ---------------------------------------------------------------
 Warning -- This program may not be used in any manner that
 competes with the business of Gaussian, Inc. or will provide
 assistance to any competitor of Gaussian, Inc.  The licensee
 of this program is prohibited from giving any competitor of
 Gaussian, Inc. access to this program.  By using this program,
 the user acknowledges that Gaussian, Inc. is engaged in the
 business of creating and licensing software in the field of
 computational chemistry and represents and warrants to the
 licensee that it is not a competitor of Gaussian, Inc. and that
 it will not use this program in any manner prohibited above.
 ---------------------------------------------------------------
  

 Cite this work as:
 Gaussian 16, Revision C.01,
 M. J. Frisch, G. W. Trucks, H. B. Schlegel, G. E. Scuseria, 
 M. A. Robb, J. R. Cheeseman, G. Scalmani, V. Barone, 
 G. A. Petersson, H. Nakatsuji, X. Li, M. Caricato, A. V. Marenich, 
 J. Bloino, B. G. Janesko, R. Gomperts, B. Mennucci, H. P. Hratchian, 
 J. V. Ortiz, A. F. Izmaylov, J. L. Sonnenberg, D. Williams-Young, 
 F. Ding, F. Lipparini, F. Egidi, J. Goings, B. Peng, A. Petrone, 
 T. Henderson, D. Ranasinghe, V. G. Zakrzewski, J. Gao, N. Rega, 
 G. Zheng, W. Liang, M. Hada, M. Ehara, K. Toyota, R. Fukuda, 
 J. Hasegawa, M. Ishida, T. Nakajima, Y. Honda, O. Kitao, H. Nakai, 
 T. Vreven, K. Throssell, J. A. Montgomery, Jr., J. E. Peralta, 
 F. Ogliaro, M. J. Bearpark, J. J. Heyd, E. N. Brothers, K. N. Kudin, 
 V. N. Staroverov, T. A. Keith, R. Kobayashi, J. Normand, 
 K. Raghavachari, A. P. Rendell, J. C. Burant, S. S. Iyengar, 
 J. Tomasi, M. Cossi, J. M. Millam, M. Klene, C. Adamo, R. Cammi, 
 J. W. Ochterski, R. L. Martin, K. Morokuma, O. Farkas, 
 J. B. Foresman, and D. J. Fox, Gaussian, Inc., Wallingford CT, 2019.
 
 ******************************************
 Gaussian 16:  ES64L-G16RevC.01  3-Jul-2019
                 4-Oct-2022 
 ******************************************
 %mem=4GB
 %chk=single_point.chk
 %nprocshared=128
 Will use up to  128 processors via shared memory.
 --------------------------------------------------------------
 #P b3lyp/Def2SVP pop(Hirshfeld) SCRF(Solvent=Water) scf(tight)
 --------------------------------------------------------------
 1/38=1,172=1/1;
 2/12=2,17=6,18=5,40=1/2;
 3/5=43,7=101,11=2,25=1,30=1,70=2201,72=1,74=-5/1,2,3;
 4//1;
 5/5=2,32=2,38=5,53=1/2;
 6/7=2,8=2,9=2,10=2,28=1,79=1/1;
 99/5=1,9=1/99;
 Leave Link    1 at Tue Oct  4 13:11:10 2022, MaxMem=   536870912 cpu:              24.0 elap:               0.8
 (Enter /sw/arch/Centos8/EB_production/2021/software/Gaussian/g16.c01/l101.exe)
 ------------------------------
 Gaussian input prepared by ASE
 ------------------------------
 Symbolic Z-matrix:
 Charge =  0 Multiplicity = 1
 H                     2.78524   2.36397  -1.15452 
 C                     1.85574   1.84051  -0.92641 
 C                     1.81514   0.44028  -0.99714 
 C                     0.72237   2.56918  -0.55877 
 H                     2.70545  -0.12677  -1.26859 
 C                     0.62927  -0.22122  -0.68136 
 H                     0.75388   3.65736  -0.4973 
 C                    -0.46155   1.88018  -0.28125 
 C                     0.4207   -1.67893  -0.53773 
 N                    -0.47086   0.5187   -0.34735 
 C                    -1.82174   2.41236  -0.09121 
 C                     1.31999  -2.7089   -0.83157 
 N                    -0.77751  -2.00173   0.02333 
 Ru                   -1.99538  -0.45505   0.40103 
 C                    -2.26949   3.70485  -0.39385 
 N                    -2.73753   1.42171   0.10862 
 H                     2.28907  -2.48593  -1.27842 
 C                     0.96057  -4.02847  -0.53364 
 C                    -1.12468  -3.24802   0.35937 
 O                    -2.98006  -2.17542   1.39265 
 O                    -3.65212  -0.70037  -0.92835 
 S                    -1.09042  -0.01218   2.43349 
 H                    -1.55482   4.51857  -0.52277 
 C                    -3.63339   3.91027  -0.61973 
 C                    -3.99149   1.55086  -0.36104 
 H                     1.65376  -4.83882  -0.76581 
 C                    -0.2698   -4.31008   0.07554 
 C                    -2.45142  -3.32457   1.11823 
 C                    -4.57343   0.21273  -0.79704 
 C                     0.04134  -1.28856   3.03628 
 C                    -2.42469  -0.12622   3.64281 
 O                    -0.40176   1.31238   2.61686 
 H                     0.90147  -1.29332   2.35512 
 H                    -0.46688  -2.26063   3.02859 
 H                     0.35228  -1.00388   4.04951 
 H                    -3.1165    0.68927   3.3971 
 H                    -2.91282  -1.10032   3.51622 
 H                    -1.99088   0.00952   4.64234 
 H                    -4.00139   4.9115   -0.85077 
 C                    -4.49695   2.80474  -0.68605 
 H                    -0.56766  -5.32438   0.34195 
 O                    -2.89376  -4.42259   1.43934 
 O                    -5.75464   0.09058  -1.0939 
 H                    -5.52634   2.89373  -1.03568 
 
 ITRead=  0  0  0  0  0  0  0  0  0  0  0  0  0  0  0  0  0  0  0  0
 ITRead=  0  0  0  0  0  0  0  0  0  0  0  0  0  0  0  0  0  0  0  0
 ITRead=  0  0  0  0
 MicOpt= -1 -1 -1 -1 -1 -1 -1 -1 -1 -1 -1 -1 -1 -1 -1 -1 -1 -1 -1 -1
 MicOpt= -1 -1 -1 -1 -1 -1 -1 -1 -1 -1 -1 -1 -1 -1 -1 -1 -1 -1 -1 -1
 MicOpt= -1 -1 -1 -1
 NAtoms=     44 NQM=       44 NQMF=       0 NMMI=      0 NMMIF=      0
                NMic=       0 NMicF=      0.
                    Isotopes and Nuclear Properties:
 (Nuclear quadrupole moments (NQMom) in fm**2, nuclear magnetic moments (NMagM)
  in nuclear magnetons)

  Atom         1           2           3           4           5           6           7           8           9          10
 IAtWgt=           1          12          12          12           1          12           1          12          12          14
 AtmWgt=   1.0078250  12.0000000  12.0000000  12.0000000   1.0078250  12.0000000   1.0078250  12.0000000  12.0000000  14.0030740
 NucSpn=           1           0           0           0           1           0           1           0           0           2
 AtZEff=  -0.0000000  -0.0000000  -0.0000000  -0.0000000  -0.0000000  -0.0000000  -0.0000000  -0.0000000  -0.0000000  -0.0000000
 NQMom=    0.0000000   0.0000000   0.0000000   0.0000000   0.0000000   0.0000000   0.0000000   0.0000000   0.0000000   2.0440000
 NMagM=    2.7928460   0.0000000   0.0000000   0.0000000   2.7928460   0.0000000   2.7928460   0.0000000   0.0000000   0.4037610
 AtZNuc=   1.0000000   6.0000000   6.0000000   6.0000000   1.0000000   6.0000000   1.0000000   6.0000000   6.0000000   7.0000000

  Atom        11          12          13          14          15          16          17          18          19          20
 IAtWgt=          12          12          14         102          12          14           1          12          12          16
 AtmWgt=  12.0000000  12.0000000  14.0030740 101.9037000  12.0000000  14.0030740   1.0078250  12.0000000  12.0000000  15.9949146
 NucSpn=           0           0           2           0           0           2           1           0           0           0
 AtZEff=  -0.0000000  -0.0000000  -0.0000000  -0.0000000  -0.0000000  -0.0000000  -0.0000000  -0.0000000  -0.0000000  -0.0000000
 NQMom=    0.0000000   0.0000000   2.0440000   0.0000000   0.0000000   2.0440000   0.0000000   0.0000000   0.0000000   0.0000000
 NMagM=    0.0000000   0.0000000   0.4037610   0.0000000   0.0000000   0.4037610   2.7928460   0.0000000   0.0000000   0.0000000
 AtZNuc=   6.0000000   6.0000000   7.0000000  44.0000000   6.0000000   7.0000000   1.0000000   6.0000000   6.0000000   8.0000000

  Atom        21          22          23          24          25          26          27          28          29          30
 IAtWgt=          16          32           1          12          12           1          12          12          12          12
 AtmWgt=  15.9949146  31.9720718   1.0078250  12.0000000  12.0000000   1.0078250  12.0000000  12.0000000  12.0000000  12.0000000
 NucSpn=           0           0           1           0           0           1           0           0           0           0
 AtZEff=  -0.0000000  -0.0000000  -0.0000000  -0.0000000  -0.0000000  -0.0000000  -0.0000000  -0.0000000  -0.0000000  -0.0000000
 NQMom=    0.0000000   0.0000000   0.0000000   0.0000000   0.0000000   0.0000000   0.0000000   0.0000000   0.0000000   0.0000000
 NMagM=    0.0000000   0.0000000   2.7928460   0.0000000   0.0000000   2.7928460   0.0000000   0.0000000   0.0000000   0.0000000
 AtZNuc=   8.0000000  16.0000000   1.0000000   6.0000000   6.0000000   1.0000000   6.0000000   6.0000000   6.0000000   6.0000000

  Atom        31          32          33          34          35          36          37          38          39          40
 IAtWgt=          12          16           1           1           1           1           1           1           1          12
 AtmWgt=  12.0000000  15.9949146   1.0078250   1.0078250   1.0078250   1.0078250   1.0078250   1.0078250   1.0078250  12.0000000
 NucSpn=           0           0           1           1           1           1           1           1           1           0
 AtZEff=  -0.0000000  -0.0000000  -0.0000000  -0.0000000  -0.0000000  -0.0000000  -0.0000000  -0.0000000  -0.0000000  -0.0000000
 NQMom=    0.0000000   0.0000000   0.0000000   0.0000000   0.0000000   0.0000000   0.0000000   0.0000000   0.0000000   0.0000000
 NMagM=    0.0000000   0.0000000   2.7928460   2.7928460   2.7928460   2.7928460   2.7928460   2.7928460   2.7928460   0.0000000
 AtZNuc=   6.0000000   8.0000000   1.0000000   1.0000000   1.0000000   1.0000000   1.0000000   1.0000000   1.0000000   6.0000000

  Atom        41          42          43          44
 IAtWgt=           1          16          16           1
 AtmWgt=   1.0078250  15.9949146  15.9949146   1.0078250
 NucSpn=           1           0           0           1
 AtZEff=  -0.0000000  -0.0000000  -0.0000000  -0.0000000
 NQMom=    0.0000000   0.0000000   0.0000000   0.0000000
 NMagM=    2.7928460   0.0000000   0.0000000   2.7928460
 AtZNuc=   1.0000000   8.0000000   8.0000000   1.0000000
 Leave Link  101 at Tue Oct  4 13:11:11 2022, MaxMem=   536870912 cpu:              11.9 elap:               0.4
 (Enter /sw/arch/Centos8/EB_production/2021/software/Gaussian/g16.c01/l202.exe)
                          Input orientation:                          
 ---------------------------------------------------------------------
 Center     Atomic      Atomic             Coordinates (Angstroms)
 Number     Number       Type             X           Y           Z
 ---------------------------------------------------------------------
      1          1           0        2.785240    2.363969   -1.154517
      2          6           0        1.855735    1.840512   -0.926409
      3          6           0        1.815136    0.440279   -0.997136
      4          6           0        0.722368    2.569177   -0.558772
      5          1           0        2.705450   -0.126771   -1.268591
      6          6           0        0.629274   -0.221218   -0.681355
      7          1           0        0.753877    3.657362   -0.497304
      8          6           0       -0.461550    1.880180   -0.281252
      9          6           0        0.420697   -1.678927   -0.537729
     10          7           0       -0.470862    0.518702   -0.347349
     11          6           0       -1.821738    2.412361   -0.091213
     12          6           0        1.319991   -2.708898   -0.831567
     13          7           0       -0.777505   -2.001726    0.023329
     14         44           0       -1.995379   -0.455051    0.401028
     15          6           0       -2.269494    3.704852   -0.393854
     16          7           0       -2.737534    1.421714    0.108618
     17          1           0        2.289073   -2.485930   -1.278415
     18          6           0        0.960569   -4.028471   -0.533639
     19          6           0       -1.124678   -3.248023    0.359370
     20          8           0       -2.980058   -2.175416    1.392649
     21          8           0       -3.652123   -0.700366   -0.928349
     22         16           0       -1.090418   -0.012182    2.433491
     23          1           0       -1.554817    4.518570   -0.522765
     24          6           0       -3.633389    3.910269   -0.619734
     25          6           0       -3.991491    1.550861   -0.361040
     26          1           0        1.653758   -4.838824   -0.765805
     27          6           0       -0.269803   -4.310083    0.075537
     28          6           0       -2.451417   -3.324568    1.118226
     29          6           0       -4.573433    0.212729   -0.797039
     30          6           0        0.041337   -1.288562    3.036276
     31          6           0       -2.424694   -0.126220    3.642810
     32          8           0       -0.401758    1.312379    2.616857
     33          1           0        0.901470   -1.293322    2.355116
     34          1           0       -0.466882   -2.260627    3.028591
     35          1           0        0.352279   -1.003884    4.049507
     36          1           0       -3.116503    0.689268    3.397096
     37          1           0       -2.912822   -1.100315    3.516220
     38          1           0       -1.990877    0.009519    4.642338
     39          1           0       -4.001390    4.911502   -0.850770
     40          6           0       -4.496948    2.804736   -0.686050
     41          1           0       -0.567659   -5.324384    0.341946
     42          8           0       -2.893760   -4.422588    1.439336
     43          8           0       -5.754637    0.090583   -1.093904
     44          1           0       -5.526343    2.893733   -1.035683
 ---------------------------------------------------------------------
                    Distance matrix (angstroms):
                    1          2          3          4          5
     1  H    0.000000
     2  C    1.090880   0.000000
     3  C    2.160198   1.402606   0.000000
     4  C    2.156957   1.396650   2.432799   0.000000
     5  H    2.494627   2.170094   1.089905   3.421198   0.000000
     6  C    3.399303   2.411429   1.394118   2.794637   2.159693
     7  H    2.496243   2.167756   3.424285   1.090375   4.327029
     8  C    3.396806   2.405745   2.787311   1.397639   3.877187
     9  C    4.724034   3.820583   2.578090   4.258854   2.857174
    10  N    3.828672   2.737799   2.377848   2.381795   3.369611
    11  C    4.728340   3.814233   4.235169   2.591463   5.322485
    12  C    5.290107   4.581828   3.192162   5.318801   2.962746
    13  N    5.756715   4.753814   3.704932   4.845783   4.161188
    14  Ru   5.763758   4.675765   4.156501   4.177717   4.999319
    15  C    5.284592   4.558168   5.263610   3.204402   6.340076
    16  N    5.743204   4.727028   4.786722   3.705807   5.824138
    17  H    4.876787   4.362315   2.977656   5.341026   2.395641
    18  C    6.676691   5.949836   4.573275   6.601994   4.336822
    19  C    7.005267   6.035667   4.907768   6.172064   5.202149
    20  O    7.767415   6.700045   5.962115   6.326703   6.603344
    21  O    7.133088   6.065687   5.585403   5.473817   6.392457
    22  S    5.791426   4.837481   4.518425   4.347786   5.303504
    23  H    4.886462   4.355088   5.311692   2.997833   6.347072
    24  C    6.623884   5.874387   6.470679   4.557945   7.543182
    25  C    6.871305   5.881632   5.946001   4.826648   6.963269
    26  H    7.301478   6.684319   5.286633   7.469192   4.854101
    27  C    7.442398   6.584195   5.297503   6.979324   5.306497
    28  C    8.058994   7.029235   6.070610   6.900831   6.520435
    29  C    7.675004   6.633296   6.395751   5.801304   7.302038
    30  C    6.199414   5.365260   4.733251   5.316984   5.194144
    31  C    7.507250   6.562611   6.310799   5.901055   7.102129
    32  O    5.048372   4.234375   4.328524   3.595528   5.179054
    33  H    5.407577   4.636803   3.883008   4.841665   4.212652
    34  H    7.032893   6.152716   5.358076   6.132740   5.751765
    35  H    6.659099   5.925429   5.449235   5.842942   5.881233
    36  H    7.638873   6.688887   6.610018   5.824078   7.505311
    37  H    8.141557   7.150143   6.715460   6.579159   7.443600
    38  H    7.871357   7.011412   6.817254   6.400398   7.550705
    39  H    7.255380   6.613820   7.337931   5.280685   8.398838
    40  C    7.310540   6.429936   6.747580   5.226179   7.797924
    41  H    8.520100   7.669244   6.379827   8.048836   6.349981
    42  O    9.221522   8.208585   7.194274   8.121182   7.558972
    43  O    8.837503   7.810766   7.578464   6.955673   8.464681
    44  H    8.329297   7.457633   7.740687   6.275282   8.771551
                    6          7          8          9         10
     6  C    0.000000
     7  H    3.884943   0.000000
     8  C    2.401219   2.163866   0.000000
     9  C    1.479543   5.346833   3.675783   0.000000
    10  N    1.367238   3.372486   1.363113   2.379222   0.000000
    11  C    3.645746   2.889417   1.472903   4.686846   2.340174
    12  C    2.586156   6.400116   4.953420   1.398539   3.722771
    13  N    2.376092   5.885700   3.906634   1.361864   2.565929
    14  Ru   2.848690   5.027658   2.876011   2.866454   1.957656
    15  C    4.888715   3.025513   2.571142   6.020208   3.659070
    16  N    3.828665   4.189894   2.354207   4.472825   2.482164
    17  H    2.870598   6.380204   5.255776   2.165802   4.184727
    18  C    3.824494   7.688698   6.082621   2.410775   4.770795
    19  C    3.649795   7.207441   5.210432   2.378031   3.887820
    20  O    4.598658   7.178822   5.058921   3.941826   4.072092
    21  O    4.315200   6.211959   4.154240   4.206902   3.456025
    22  S    3.564169   5.045447   3.368433   3.726883   2.898061
    23  H    5.221206   2.464223   2.866123   6.504756   4.147852
    24  C    5.936605   4.396255   3.781057   6.905176   4.645266
    25  C    4.959268   5.193692   3.546167   5.470846   3.668837
    26  H    4.730643   8.547927   7.060760   3.399619   5.778598
    27  C    4.254414   8.053338   6.203501   2.788524   4.851435
    28  C    4.728629   7.850554   5.745216   3.701265   4.565220
    29  C    5.222054   6.351029   4.466991   5.346675   4.138469
    30  C    3.912247   6.120136   4.615172   3.615219   3.870074
    31  C    5.294728   6.446654   4.824711   5.289996   4.489404
    32  O    3.780628   4.066010   2.953813   4.424450   3.069400
    33  H    3.231664   5.715536   4.345040   2.957767   3.531295
    34  H    4.373151   6.996055   5.301073   3.720861   4.372832
    35  H    4.803160   6.523955   5.266461   4.637143   4.725270
    36  H    5.611915   6.241456   4.690127   5.796808   4.587960
    37  H    5.562274   7.224164   5.414137   5.280307   4.848871
    38  H    5.938025   6.874326   5.484519   5.958157   5.240867
    39  H    6.914952   4.930555   4.695075   7.942708   5.658158
    40  C    5.952694   5.322946   4.159700   6.656460   4.642202
    41  H    5.340608   9.117157   7.232246   3.878148   5.884399
    42  O    5.878827   9.074217   6.971438   4.735197   5.786106
    43  O    6.404821   7.445710   5.646223   6.447887   5.353402
    44  H    6.907973   6.349342   5.220018   7.518275   5.627829
                   11         12         13         14         15
    11  C    0.000000
    12  C    6.053584   0.000000
    13  N    4.537368   2.372852   0.000000
    14  Ru   2.914533   4.194138   2.004514   0.000000
    15  C    1.400932   7.362892   5.913130   4.244027   0.000000
    16  N    1.363817   5.865954   3.945748   2.039251   2.384168
    17  H    6.503958   1.090187   3.366436   5.030062   7.738783
    18  C    7.030028   1.399721   2.727418   4.730810   8.381953
    19  C    5.720915   2.772254   1.336678   2.925841   7.086637
    20  O    4.958956   4.870540   2.599316   2.216430   6.186602
    21  O    3.706774   5.363346   3.295855   2.138276   4.647934
    22  S    3.575943   4.872674   3.140873   2.268478   4.816684
    23  H    2.166472   7.784354   6.589134   5.077834   1.090650
    24  C    2.409386   8.270080   6.597067   4.772950   1.397651
    25  C    2.350067   6.824865   4.806071   2.930681   2.757903
    26  H    8.069314   2.156921   3.818756   5.821955   9.408754
    27  C    6.901272   2.431887   2.364106   4.236134   8.273952
    28  C    5.896744   4.290019   2.398060   2.992736   7.192512
    29  C    3.592826   6.577959   4.470557   2.920215   4.203048
    30  C    5.191249   4.314223   3.202648   3.433291   6.483819
    31  C    4.555313   6.380669   4.396748   3.286578   5.567392
    32  O    3.249607   5.570163   4.225028   3.251666   4.275131
    33  H    5.208884   3.511974   2.959396   3.593451   6.526377
    34  H    5.779760   4.277228   3.032345   3.535604   7.109816
    35  H    5.791601   5.260078   4.299094   4.373113   6.984937
    36  H    4.100459   7.007967   4.908632   3.397471   4.917568
    37  H    5.151983   6.277539   4.191946   3.310965   6.228337
    38  H    5.311192   6.950919   5.181952   4.266680   6.252707
    39  H    3.401987   9.294512   7.677904   5.864381   2.159685
    40  C    2.768490   8.016116   6.118787   4.250388   2.420153
    41  H    7.849686   3.432364   3.344489   5.074670   9.217632
    42  O    7.085784   5.084234   3.513429   4.198395   8.354973
    43  O    4.675867   7.612902   5.513421   4.082225   5.069441
    44  H    3.853290   8.848922   6.902064   5.074071   3.417151
                   16         17         18         19         20
    16  N    0.000000
    17  H    6.516158   0.000000
    18  C    6.617626   2.167729   0.000000
    19  C    4.946779   3.862230   2.398920   0.000000
    20  O    3.827127   5.915635   4.761611   2.379199   0.000000
    21  O    2.532784   6.213581   5.701667   3.812710   2.830985
    22  S    3.189684   5.596305   5.398239   3.843673   3.055106
    23  H    3.374608   8.025554   8.909500   7.828355   7.107009
    24  C    2.743348   8.741898   9.172538   7.648099   6.442988
    25  C    1.345238   7.522150   7.462013   5.636213   4.240703
    26  H    7.696908   2.490483   1.091368   3.393578   5.764106
    27  C    6.240536   3.421778   1.401505   1.392603   3.692840
    28  C    4.860902   5.377680   3.855617   1.530346   1.294341
    29  C    2.377474   7.389755   6.977273   5.020757   3.610653
    30  C    4.861985   5.010246   4.593080   3.516377   3.552020
    31  C    3.870979   7.211538   6.643064   4.713457   3.093680
    32  O    3.429150   6.069668   6.348719   5.139662   4.506776
    33  H    5.065622   4.068206   3.978623   3.450961   4.095204
    34  H    5.219362   5.118237   4.225207   2.921025   2.999937
    35  H    5.564268   5.859555   5.524796   4.564501   4.419938
    36  H    3.390307   7.820648   7.370906   5.356996   3.498977
    37  H    4.243007   7.208895   6.322864   4.216137   2.381159
    38  H    4.806913   7.720139   7.197717   5.450293   4.038923
    39  H    3.833585   9.719815  10.229601   8.736004   7.503363
    40  C    2.374823   8.625087   8.746453   7.007211   5.605699
    41  H    7.090320   4.340888   2.186669   2.149849   4.103614
    42  O    5.995922   6.164298   4.347851   2.382348   2.249313
    43  O    3.510111   8.448298   7.897752   5.890231   4.360732
    44  H    3.354657   9.491071   9.499947   7.683879   6.170627
                   21         22         23         24         25
    21  O    0.000000
    22  S    4.282277   0.000000
    23  H    5.639192   5.429809   0.000000
    24  C    4.620990   5.583413   2.167924   0.000000
    25  C    2.346281   4.320733   3.843284   2.400409   0.000000
    26  H    6.730946   6.408000   9.895193  10.223595   8.535851
    27  C    5.047567   4.970444   8.941719   8.909057   6.956452
    28  C    3.537881   3.814989   8.062974   7.533952   5.322581
    29  C    1.303763   4.755870   5.265694   3.819283   1.522941
    30  C    5.450309   1.809244   6.995517   7.341516   5.988972
    31  C    4.767779   1.804370   6.299427   5.993619   4.615005
    32  O    5.213876   1.504107   4.633188   5.260037   4.670217
    33  H    5.645170   2.369616   6.934957   7.516119   6.277575
    34  H    5.313901   2.407996   7.730022   7.836900   6.199993
    35  H    6.395812   2.382510   7.418907   7.863604   6.696864
    36  H    4.574653   2.350657   5.698046   5.174644   3.953673
    37  H    4.523353   2.382749   7.051911   6.536917   4.819274
    38  H    5.856298   2.385435   6.870224   6.753007   5.604639
    39  H    5.623261   6.595665   2.499540   1.091453   3.396151
    40  C    3.613610   5.410269   3.408816   1.404399   1.390439
    41  H    5.701676   5.733003   9.930053   9.777645   7.712704
    42  O    4.476157   4.867450   9.251320   8.615296   6.334703
    43  O    2.252460   5.848762   6.129580   4.394830   2.403786
    44  H    4.054845   6.336950   4.321597   2.188523   2.148073
                   26         27         28         29         30
    26  H    0.000000
    27  C    2.165066   0.000000
    28  C    4.763928   2.611107   0.000000
    29  C    8.018545   6.303844   4.547929   0.000000
    30  C    5.446107   4.241742   3.746740   6.184196   0.000000
    31  C    7.634022   5.905396   4.074760   4.944110   2.792889
    32  O    7.314701   6.171531   5.286613   5.501526   2.671543
    33  H    4.782956   3.958435   4.110682   6.494523   1.097192
    34  H    5.053875   3.599950   2.952938   6.133245   1.096930
    35  H    6.291887   5.206762   4.673189   7.016537   1.097435
    36  H    8.405054   6.643039   4.663311   4.465479   3.743522
    37  H    7.291491   5.396894   3.303115   4.804781   2.998806
    38  H    8.126365   6.517417   4.873151   6.024758   2.897299
    39  H   11.271946   9.991017   8.608845   4.733771   8.360237
    40  C    9.811297   8.310801   6.708798   2.595509   7.155895
    41  H    2.529343   1.090183   2.854894   6.928429   4.890619
    42  O    5.071077   2.959351   1.226551   5.413764   4.581171
    43  O    8.904550   7.128594   5.240996   1.224047   7.249396
    44  H   10.555526   8.986712   7.263729   2.855306   8.066691
                   31         32         33         34         35
    31  C    0.000000
    32  O    2.685967   0.000000
    33  H    3.752819   2.925165   0.000000
    34  H    2.960741   3.597240   1.806000   0.000000
    35  H    2.940625   2.825975   1.804535   1.814579   0.000000
    36  H    1.097267   2.892556   4.600054   3.982232   3.914697
    37  H    1.096884   3.596580   3.991771   2.750769   3.309770
    38  H    1.098034   2.885362   3.910812   3.174949   2.620842
    39  H    6.932307   6.159178   8.533205   8.887161   8.829436
    40  C    5.623501   5.468721   7.428707   7.463102   7.774708
    41  H    6.431578   7.017789   4.739267   4.076129   5.767063
    42  O    4.851196   6.362898   5.003472   3.617947   5.388627
    43  O    5.794134   6.626903   7.623299   7.105175   8.058968
    44  H    6.374060   6.488690   8.387236   8.287575   8.695330
                   36         37         38         39         40
    36  H    0.000000
    37  H    1.805072   0.000000
    38  H    1.811000   1.830261   0.000000
    39  H    6.054308   7.509829   7.631896   0.000000
    40  C    4.801345   5.951298   6.518079   2.170524   0.000000
    41  H    7.210725   5.780879   6.997817  10.862156   9.087281
    42  O    5.478459   3.918075   5.542381   9.674537   7.702057
    43  O    5.242829   5.545033   6.861263   5.135587   3.019065
    44  H    5.506044   6.595660   7.284101   2.535955   1.090788
                   41         42         43         44
    41  H    0.000000
    42  O    2.725481   0.000000
    43  O    7.634676   5.913597   0.000000
    44  H    9.696590   8.159949   2.813034   0.000000
 Stoichiometry    C19H15N3O5RuS
 Framework group  C1[X(C19H15N3O5RuS)]
 Deg. of freedom   126
 Full point group                 C1      NOp   1
 Largest Abelian subgroup         C1      NOp   1
 Largest concise Abelian subgroup C1      NOp   1
                         Standard orientation:                         
 ---------------------------------------------------------------------
 Center     Atomic      Atomic             Coordinates (Angstroms)
 Number     Number       Type             X           Y           Z
 ---------------------------------------------------------------------
      1          1           0       -0.777820    5.186324   -0.694992
      2          6           0       -0.662395    4.103077   -0.637780
      3          6           0        0.562914    3.518453   -0.990108
      4          6           0       -1.731209    3.314143   -0.206674
      5          1           0        1.400424    4.137861   -1.310738
      6          6           0        0.708357    2.135443   -0.891644
      7          1           0       -2.682460    3.767517    0.073490
      8          6           0       -1.566287    1.927386   -0.150993
      9          6           0        1.948208    1.345197   -1.056955
     10          7           0       -0.361866    1.385893   -0.488980
     11          6           0       -2.581655    0.879937    0.052280
     12          6           0        3.200328    1.791482   -1.491621
     13          7           0        1.823464    0.051033   -0.651676
     14         44           0       -0.011268   -0.489975   -0.052386
     15          6           0       -3.972700    1.032309   -0.013953
     16          7           0       -2.046738   -0.373009   -0.010850
     17          1           0        3.336402    2.822008   -1.820267
     18          6           0        4.277468    0.897628   -1.488305
     19          6           0        2.846062   -0.807954   -0.595621
     20          8           0        1.271049   -2.208825    0.507775
     21          8           0       -0.690858   -1.899565   -1.509588
     22         16           0        0.286522    0.217045    2.082429
     23          1           0       -4.422305    2.022432    0.069881
     24          6           0       -4.761792   -0.089473   -0.282962
     25          6           0       -2.759498   -1.390857   -0.526238
     26          1           0        5.256451    1.235889   -1.832189
     27          6           0        4.109891   -0.416126   -1.029846
     28          6           0        2.477921   -2.148630    0.043926
     29          6           0       -1.872833   -2.389224   -1.258656
     30          6           0        1.995718    0.648110    2.490104
     31          6           0        0.018801   -1.209538    3.154312
     32          8           0       -0.582652    1.342671    2.572163
     33          1           0        2.253658    1.522547    1.879648
     34          1           0        2.652124   -0.198589    2.254546
     35          1           0        2.028375    0.899002    3.557976
     36          1           0       -1.038474   -1.476459    3.032172
     37          1           0        0.666941   -2.021912    2.803431
     38          1           0        0.233999   -0.904705    4.187000
     39          1           0       -5.847680    0.008918   -0.332325
     40          6           0       -4.143576   -1.302968   -0.625854
     41          1           0        4.934635   -1.128077   -0.992148
     42          8           0        3.325702   -3.032642    0.108857
     43          8           0       -2.303406   -3.465881   -1.650712
     44          1           0       -4.707876   -2.150433   -1.017244
 ---------------------------------------------------------------------
 Rotational constants (GHZ):           0.2237962           0.1637292           0.1305935
 Leave Link  202 at Tue Oct  4 13:11:11 2022, MaxMem=   536870912 cpu:               8.1 elap:               0.3
 (Enter /sw/arch/Centos8/EB_production/2021/software/Gaussian/g16.c01/l301.exe)
 Standard basis: def2SVP (5D, 7F)
 Ernie: Thresh=  0.10000D-02 Tol=  0.10000D-05 Strict=F.
 There are   535 symmetry adapted cartesian basis functions of A   symmetry.
 There are   502 symmetry adapted basis functions of A   symmetry.
   502 basis functions,   882 primitive gaussians,   535 cartesian basis functions
   111 alpha electrons      111 beta electrons
       nuclear repulsion energy      3441.9895847904 Hartrees.
 IExCor=  402 DFT=T Ex+Corr=B3LYP ExCW=0 ScaHFX=  0.200000
 ScaDFX=  0.800000  0.720000  1.000000  0.810000 ScalE2=  1.000000  1.000000
 IRadAn=      5 IRanWt=     -1 IRanGd=            0 ICorTp=0 IEmpDi=  4
 NAtoms=   44 NActive=   44 NUniq=   44 SFac= 1.00D+00 NAtFMM=   60 NAOKFM=F Big=F
 Integral buffers will be    131072 words long.
 Raffenetti 2 integral format.
 Two-electron integral symmetry is turned on.
 ------------------------------------------------------------------------------
 Polarizable Continuum Model (PCM)
 =================================
 Model                : PCM.
 Atomic radii         : UFF (Universal Force Field).
 Polarization charges : Total charges.
 Charge compensation  : None.
 Solution method      : On-the-fly selection.
 Cavity type          : Scaled VdW (van der Waals Surface) (Alpha=1.100).
 Cavity algorithm     : GePol (No added spheres)
                        Default sphere list used, NSphG=   44.
                        Lebedev-Laikov grids with approx.  5.0 points / Ang**2.
                        Smoothing algorithm: York/Karplus (Gamma=1.0000).
                        Polarization charges: spherical gaussians, with
                                              point-specific exponents (IZeta= 3).
                        Self-potential: point-specific (ISelfS= 7).
                        Self-field    : sphere-specific E.n sum rule (ISelfD= 2).
 Solvent              : Water, Eps=  78.355300 Eps(inf)=   1.777849
 ------------------------------------------------------------------------------
 GePol: Number of generator spheres                  =      44
 GePol: Total number of spheres                      =      44
 GePol: Number of exposed spheres                    =      44 (100.00%)
 GePol: Number of points                             =    3271
 GePol: Average weight of points                     =       0.13
 GePol: Minimum weight of points                     =   0.30D-10
 GePol: Maximum weight of points                     =    0.20577
 GePol: Number of points with low weight             =     205
 GePol: Fraction of low-weight points (<1% of avg)   =       6.27%
 GePol: Cavity surface area                          =    421.823 Ang**2
 GePol: Cavity volume                                =    499.787 Ang**3
 Leave Link  301 at Tue Oct  4 13:11:11 2022, MaxMem=   536870912 cpu:              11.9 elap:               0.4
 (Enter /sw/arch/Centos8/EB_production/2021/software/Gaussian/g16.c01/l302.exe)
 NPDir=0 NMtPBC=     1 NCelOv=     1 NCel=       1 NClECP=     1 NCelD=      1
         NCelK=      1 NCelE2=     1 NClLst=     1 CellRange=     0.0.
 One-electron integrals computed using PRISM.
 One-electron integral symmetry used in STVInt
 PrsmSu:  requested number of processors reduced to:  63 ShMem   1 Linda.
   1 Symmetry operations used in ECPInt.
 ECPInt:  NShTT=   25651 NPrTT=   95700 LenC2=   23203 LenP2D=   58138.
 LDataN:  DoStor=T MaxTD1= 7 Len=  274
 Number of processors reduced to  28 by ecpmxn.
 NBasis=   502 RedAO= T EigKep=  4.49D-04  NBF=   502
 NBsUse=   502 1.00D-06 EigRej= -1.00D+00 NBFU=   502
 Precomputing XC quadrature grid using
 IXCGrd= 4 IRadAn=           5 IRanWt=          -1 IRanGd=           0 AccXCQ= 0.00D+00.
 Defaulting to unpruned grid for atomic number  44.
 Generated NRdTot=       0 NPtTot=           0 NUsed=           0 NTot=          32
 NSgBfM=   533   533   533   533   533 MxSgAt=    44 MxSgA2=    44.
 Leave Link  302 at Tue Oct  4 13:11:27 2022, MaxMem=   536870912 cpu:             489.2 elap:              15.4
 (Enter /sw/arch/Centos8/EB_production/2021/software/Gaussian/g16.c01/l303.exe)
 DipDrv:  MaxL=1.
 Leave Link  303 at Tue Oct  4 13:11:28 2022, MaxMem=   536870912 cpu:              30.8 elap:               1.0
 (Enter /sw/arch/Centos8/EB_production/2021/software/Gaussian/g16.c01/l401.exe)
 ExpMin= 3.92D-02 ExpMax= 9.18D+03 ExpMxC= 1.38D+03 IAcc=3 IRadAn=         5 AccDes= 0.00D+00
 Harris functional with IExCor=  402 and IRadAn=       5 diagonalized for initial guess.
 HarFok:  IExCor=  402 AccDes= 0.00D+00 IRadAn=         5 IDoV= 1 UseB2=F ITyADJ=14
 ICtDFT=  3500011 ScaDFX=  1.000000  1.000000  1.000000  1.000000
 Defaulting to unpruned grid for atomic number  44.
 FoFCou: FMM=F IPFlag=           0 FMFlag=      100000 FMFlg1=           0
         NFxFlg=           0 DoJE=T BraDBF=F KetDBF=T FulRan=T
         wScrn=  0.000000 ICntrl=       500 IOpCl=  0 I1Cent=   200000004 NGrid=           0
         NMat0=    1 NMatS0=      1 NMatT0=    0 NMatD0=    1 NMtDS0=    0 NMtDT0=    0
 Petite list used in FoFCou.
 Harris En= -1765.54408790277    
 JPrj=0 DoOrth=F DoCkMO=F.
 Leave Link  401 at Tue Oct  4 13:11:40 2022, MaxMem=   536870912 cpu:             377.7 elap:              11.9
 (Enter /sw/arch/Centos8/EB_production/2021/software/Gaussian/g16.c01/l502.exe)
 Integral symmetry usage will be decided dynamically.
 Closed shell SCF:
 Using DIIS extrapolation, IDIIS=  1040.
 NGot=   536870912 LenX=   536223414 LenY=   535936654
 Requested convergence on RMS density matrix=1.00D-08 within 128 cycles.
 Requested convergence on MAX density matrix=1.00D-06.
 Requested convergence on             energy=1.00D-06.
 No special actions if energy rises.
 Fock matrices will be formed incrementally for  20 cycles.

 Cycle   1  Pass 1  IDiag  1:
 FoFJK:  IHMeth= 1 ICntrl=       0 DoSepK=F KAlg= 0 I1Cent=           0 FoldK=F
 IRaf= 830000000 NMat=       1 IRICut=       1 DoRegI=T DoRafI=F ISym2E= 0 IDoP0=0 IntGTp=1.
 FoFCou: FMM=F IPFlag=           0 FMFlag=      100000 FMFlg1=           0
         NFxFlg=           0 DoJE=F BraDBF=F KetDBF=F FulRan=T
         wScrn=  0.000000 ICntrl=         0 IOpCl=  0 I1Cent=           0 NGrid=           0
         NMat0=    1 NMatS0=      1 NMatT0=    0 NMatD0=    1 NMtDS0=    0 NMtDT0=    0
 Symmetry not used in FoFCou.
 Defaulting to unpruned grid for atomic number  44.
 Defaulting to unpruned grid for atomic number  44.
 Defaulting to unpruned grid for atomic number  44.
 Defaulting to unpruned grid for atomic number  44.
 Defaulting to unpruned grid for atomic number  44.
 Defaulting to unpruned grid for atomic number  44.
 Defaulting to unpruned grid for atomic number  44.
 Defaulting to unpruned grid for atomic number  44.
 Defaulting to unpruned grid for atomic number  44.
 Defaulting to unpruned grid for atomic number  44.
 Defaulting to unpruned grid for atomic number  44.
 Defaulting to unpruned grid for atomic number  44.
 Defaulting to unpruned grid for atomic number  44.
 Defaulting to unpruned grid for atomic number  44.
 Defaulting to unpruned grid for atomic number  44.
 Defaulting to unpruned grid for atomic number  44.
 Defaulting to unpruned grid for atomic number  44.
 Defaulting to unpruned grid for atomic number  44.
 Defaulting to unpruned grid for atomic number  44.
 Defaulting to unpruned grid for atomic number  44.
 Defaulting to unpruned grid for atomic number  44.
 Defaulting to unpruned grid for atomic number  44.
 Defaulting to unpruned grid for atomic number  44.
 Defaulting to unpruned grid for atomic number  44.
 Defaulting to unpruned grid for atomic number  44.
 Defaulting to unpruned grid for atomic number  44.
 Defaulting to unpruned grid for atomic number  44.
 Defaulting to unpruned grid for atomic number  44.
 Defaulting to unpruned grid for atomic number  44.
 Defaulting to unpruned grid for atomic number  44.
 Defaulting to unpruned grid for atomic number  44.
 Defaulting to unpruned grid for atomic number  44.
 Defaulting to unpruned grid for atomic number  44.
 Defaulting to unpruned grid for atomic number  44.
 Defaulting to unpruned grid for atomic number  44.
 Defaulting to unpruned grid for atomic number  44.
 Defaulting to unpruned grid for atomic number  44.
 Defaulting to unpruned grid for atomic number  44.
 Defaulting to unpruned grid for atomic number  44.
 Defaulting to unpruned grid for atomic number  44.
 Defaulting to unpruned grid for atomic number  44.
 Defaulting to unpruned grid for atomic number  44.
 Defaulting to unpruned grid for atomic number  44.
 Defaulting to unpruned grid for atomic number  44.
 Defaulting to unpruned grid for atomic number  44.
 Defaulting to unpruned grid for atomic number  44.
 Defaulting to unpruned grid for atomic number  44.
 Defaulting to unpruned grid for atomic number  44.
 Defaulting to unpruned grid for atomic number  44.
 Defaulting to unpruned grid for atomic number  44.
 Defaulting to unpruned grid for atomic number  44.
 Defaulting to unpruned grid for atomic number  44.
 Defaulting to unpruned grid for atomic number  44.
 Defaulting to unpruned grid for atomic number  44.
 Defaulting to unpruned grid for atomic number  44.
 Defaulting to unpruned grid for atomic number  44.
 Defaulting to unpruned grid for atomic number  44.
 Defaulting to unpruned grid for atomic number  44.
 Defaulting to unpruned grid for atomic number  44.
 Defaulting to unpruned grid for atomic number  44.
 Defaulting to unpruned grid for atomic number  44.
 Defaulting to unpruned grid for atomic number  44.
 Defaulting to unpruned grid for atomic number  44.
 Defaulting to unpruned grid for atomic number  44.
 Defaulting to unpruned grid for atomic number  44.
 Defaulting to unpruned grid for atomic number  44.
 Defaulting to unpruned grid for atomic number  44.
 Defaulting to unpruned grid for atomic number  44.
 Defaulting to unpruned grid for atomic number  44.
 Defaulting to unpruned grid for atomic number  44.
 Defaulting to unpruned grid for atomic number  44.
 Defaulting to unpruned grid for atomic number  44.
 Defaulting to unpruned grid for atomic number  44.
 Defaulting to unpruned grid for atomic number  44.
 Defaulting to unpruned grid for atomic number  44.
 Defaulting to unpruned grid for atomic number  44.
 Defaulting to unpruned grid for atomic number  44.
 Defaulting to unpruned grid for atomic number  44.
 Defaulting to unpruned grid for atomic number  44.
 Defaulting to unpruned grid for atomic number  44.
 Defaulting to unpruned grid for atomic number  44.
 Defaulting to unpruned grid for atomic number  44.
 Defaulting to unpruned grid for atomic number  44.
 Defaulting to unpruned grid for atomic number  44.
 Defaulting to unpruned grid for atomic number  44.
 Defaulting to unpruned grid for atomic number  44.
 Defaulting to unpruned grid for atomic number  44.
 Defaulting to unpruned grid for atomic number  44.
 Defaulting to unpruned grid for atomic number  44.
 Defaulting to unpruned grid for atomic number  44.
 Defaulting to unpruned grid for atomic number  44.
 Defaulting to unpruned grid for atomic number  44.
 Defaulting to unpruned grid for atomic number  44.
 Defaulting to unpruned grid for atomic number  44.
 Defaulting to unpruned grid for atomic number  44.
 Defaulting to unpruned grid for atomic number  44.
 Defaulting to unpruned grid for atomic number  44.
 Defaulting to unpruned grid for atomic number  44.
 Defaulting to unpruned grid for atomic number  44.
 Defaulting to unpruned grid for atomic number  44.
 Defaulting to unpruned grid for atomic number  44.
 Defaulting to unpruned grid for atomic number  44.
 Defaulting to unpruned grid for atomic number  44.
 Defaulting to unpruned grid for atomic number  44.
 Defaulting to unpruned grid for atomic number  44.
 Defaulting to unpruned grid for atomic number  44.
 Defaulting to unpruned grid for atomic number  44.
 Defaulting to unpruned grid for atomic number  44.
 Defaulting to unpruned grid for atomic number  44.
 Defaulting to unpruned grid for atomic number  44.
 Defaulting to unpruned grid for atomic number  44.
 Defaulting to unpruned grid for atomic number  44.
 Defaulting to unpruned grid for atomic number  44.
 Defaulting to unpruned grid for atomic number  44.
 Defaulting to unpruned grid for atomic number  44.
 Defaulting to unpruned grid for atomic number  44.
 Defaulting to unpruned grid for atomic number  44.
 Defaulting to unpruned grid for atomic number  44.
 Defaulting to unpruned grid for atomic number  44.
 Defaulting to unpruned grid for atomic number  44.
 Defaulting to unpruned grid for atomic number  44.
 Defaulting to unpruned grid for atomic number  44.
 Defaulting to unpruned grid for atomic number  44.
 Defaulting to unpruned grid for atomic number  44.
 Defaulting to unpruned grid for atomic number  44.
 Defaulting to unpruned grid for atomic number  44.
 Defaulting to unpruned grid for atomic number  44.
 Defaulting to unpruned grid for atomic number  44.
 Inv3:  Mode=1 IEnd=    32098323.
 Iteration    1 A*A^-1 deviation from unit magnitude is 3.33D-15 for   1341.
 Iteration    1 A*A^-1 deviation from orthogonality  is 2.78D-15 for   2618    485.
 Iteration    1 A^-1*A deviation from unit magnitude is 3.33D-15 for   1341.
 Iteration    1 A^-1*A deviation from orthogonality  is 1.42D-13 for   3034   3016.
 E= -1761.16351145177    
 DIIS: error= 5.46D-02 at cycle   1 NSaved=   1.
 NSaved= 1 IEnMin= 1 EnMin= -1761.16351145177     IErMin= 1 ErrMin= 5.46D-02
 ErrMax= 5.46D-02  0.00D+00 EMaxC= 1.00D-01 BMatC= 3.95D+00 BMatP= 3.95D+00
 IDIUse=3 WtCom= 4.54D-01 WtEn= 5.46D-01
 Coeff-Com:  0.100D+01
 Coeff-En:   0.100D+01
 Coeff:      0.100D+01
 Gap=     0.131 Goal=   None    Shift=    0.000
 GapD=    0.131 DampG=1.000 DampE=0.250 DampFc=0.2500 IDamp=-1.
 Damping current iteration by 2.50D-01
 RMSDP=3.16D-02 MaxDP=4.64D+00              OVMax= 9.25D-01

 Cycle   2  Pass 1  IDiag  1:
 RMSU=  7.90D-03    CP:  9.99D-01
 E= -1762.42312979923     Delta-E=       -1.259618347459 Rises=F Damp=T
 DIIS: error= 1.77D-02 at cycle   2 NSaved=   2.
 NSaved= 2 IEnMin= 2 EnMin= -1762.42312979923     IErMin= 2 ErrMin= 1.77D-02
 ErrMax= 1.77D-02  0.00D+00 EMaxC= 1.00D-01 BMatC= 4.33D-01 BMatP= 3.95D+00
 IDIUse=3 WtCom= 8.23D-01 WtEn= 1.77D-01
 Coeff-Com: -0.825D-02 0.101D+01
 Coeff-En:   0.317D+00 0.683D+00
 Coeff:      0.492D-01 0.951D+00
 Gap=    -0.243 Goal=   None    Shift=    0.000
 RMSDP=8.58D-03 MaxDP=9.31D-01 DE=-1.26D+00 OVMax= 8.27D-01

 Cycle   3  Pass 1  IDiag  1:
 RMSU=  5.45D-03    CP:  9.44D-01  1.71D-01
 E= -1762.61081340888     Delta-E=       -0.187683609659 Rises=F Damp=F
 DIIS: error= 5.97D-02 at cycle   3 NSaved=   3.
 NSaved= 3 IEnMin= 3 EnMin= -1762.61081340888     IErMin= 2 ErrMin= 1.77D-02
 ErrMax= 5.97D-02  0.00D+00 EMaxC= 1.00D-01 BMatC= 3.19D+00 BMatP= 4.33D-01
 IDIUse=2 WtCom= 0.00D+00 WtEn= 1.00D+00
 EnCoef did   100 forward-backward iterations
 Coeff-En:   0.412D+00 0.170D-01 0.571D+00
 Coeff:      0.412D+00 0.170D-01 0.571D+00
 Gap=     0.155 Goal=   None    Shift=    0.000
 RMSDP=7.97D-03 MaxDP=3.79D-01 DE=-1.88D-01 OVMax= 7.11D-01

 Cycle   4  Pass 1  IDiag  1:
 RMSU=  7.12D-03    CP:  9.47D-01  3.23D-01  3.82D-01
 E= -1753.80749340815     Delta-E=        8.803320000733 Rises=F Damp=F
 DIIS: error= 1.16D-01 at cycle   4 NSaved=   4.
 NSaved= 4 IEnMin= 3 EnMin= -1762.61081340888     IErMin= 2 ErrMin= 1.77D-02
 ErrMax= 1.16D-01  0.00D+00 EMaxC= 1.00D-01 BMatC= 9.68D+00 BMatP= 4.33D-01
 IDIUse=2 WtCom= 0.00D+00 WtEn= 1.00D+00
 EnCoef did   100 forward-backward iterations
 Coeff-En:   0.412D+00 0.523D-02 0.436D+00 0.147D+00
 Coeff:      0.412D+00 0.523D-02 0.436D+00 0.147D+00
 Gap=     0.196 Goal=   None    Shift=    0.000
 RMSDP=5.81D-03 MaxDP=5.81D-01 DE= 8.80D+00 OVMax= 9.35D-01

 Cycle   5  Pass 1  IDiag  1:
 RMSU=  2.84D-03    CP:  9.57D-01  1.49D-01  5.12D-01  3.23D-01
 E= -1765.09935360136     Delta-E=      -11.291860193204 Rises=F Damp=F
 DIIS: error= 1.53D-02 at cycle   5 NSaved=   5.
 NSaved= 5 IEnMin= 5 EnMin= -1765.09935360136     IErMin= 5 ErrMin= 1.53D-02
 ErrMax= 1.53D-02  0.00D+00 EMaxC= 1.00D-01 BMatC= 4.97D-01 BMatP= 4.33D-01
 IDIUse=2 WtCom= 0.00D+00 WtEn= 1.00D+00
 EnCoef did     2 forward-backward iterations
 Coeff-En:   0.131D+00 0.000D+00 0.105D+00 0.000D+00 0.763D+00
 Coeff:      0.131D+00 0.000D+00 0.105D+00 0.000D+00 0.763D+00
 Gap=     0.205 Goal=   None    Shift=    0.000
 RMSDP=3.39D-03 MaxDP=2.06D-01 DE=-1.13D+01 OVMax= 3.24D-01

 Cycle   6  Pass 1  IDiag  1:
 RMSU=  1.92D-03    CP:  9.63D-01  5.91D-02  5.88D-01  3.10D-02  4.08D-01
 E= -1765.03323962256     Delta-E=        0.066113978797 Rises=F Damp=F
 DIIS: error= 2.27D-02 at cycle   6 NSaved=   6.
 NSaved= 6 IEnMin= 5 EnMin= -1765.09935360136     IErMin= 5 ErrMin= 1.53D-02
 ErrMax= 2.27D-02  0.00D+00 EMaxC= 1.00D-01 BMatC= 5.85D-01 BMatP= 4.33D-01
 IDIUse=2 WtCom= 0.00D+00 WtEn= 1.00D+00
 Coeff-En:   0.000D+00 0.000D+00 0.000D+00 0.000D+00 0.522D+00 0.478D+00
 Coeff:      0.000D+00 0.000D+00 0.000D+00 0.000D+00 0.522D+00 0.478D+00
 Gap=     0.100 Goal=   None    Shift=    0.000
 RMSDP=1.79D-03 MaxDP=7.50D-02 DE= 6.61D-02 OVMax= 2.37D-01

 Cycle   7  Pass 1  IDiag  1:
 RMSU=  7.32D-04    CP:  9.61D-01  9.42D-02  5.61D-01  1.65D-01  6.87D-01
                    CP:  4.69D-01
 E= -1765.59448206200     Delta-E=       -0.561242439437 Rises=F Damp=F
 DIIS: error= 5.02D-03 at cycle   7 NSaved=   7.
 NSaved= 7 IEnMin= 7 EnMin= -1765.59448206200     IErMin= 7 ErrMin= 5.02D-03
 ErrMax= 5.02D-03  0.00D+00 EMaxC= 1.00D-01 BMatC= 2.46D-02 BMatP= 4.33D-01
 IDIUse=3 WtCom= 9.50D-01 WtEn= 5.02D-02
 Coeff-Com: -0.226D-01 0.391D-01-0.928D-02-0.538D-02 0.235D+00 0.257D+00
 Coeff-Com:  0.506D+00
 Coeff-En:   0.000D+00 0.000D+00 0.000D+00 0.000D+00 0.000D+00 0.000D+00
 Coeff-En:   0.100D+01
 Coeff:     -0.215D-01 0.372D-01-0.881D-02-0.511D-02 0.223D+00 0.244D+00
 Coeff:      0.531D+00
 Gap=     0.105 Goal=   None    Shift=    0.000
 RMSDP=4.57D-04 MaxDP=3.35D-02 DE=-5.61D-01 OVMax= 3.62D-02

 Cycle   8  Pass 1  IDiag  1:
 RMSU=  3.00D-04    CP:  9.60D-01  9.46D-02  5.69D-01  1.67D-01  7.16D-01
                    CP:  5.34D-01  5.82D-01
 E= -1765.61206722354     Delta-E=       -0.017585161543 Rises=F Damp=F
 DIIS: error= 2.13D-03 at cycle   8 NSaved=   8.
 NSaved= 8 IEnMin= 8 EnMin= -1765.61206722354     IErMin= 8 ErrMin= 2.13D-03
 ErrMax= 2.13D-03  0.00D+00 EMaxC= 1.00D-01 BMatC= 4.97D-03 BMatP= 2.46D-02
 IDIUse=3 WtCom= 9.79D-01 WtEn= 2.13D-02
 Coeff-Com: -0.714D-02 0.754D-02-0.307D-02-0.271D-02 0.528D-01 0.441D-01
 Coeff-Com:  0.312D+00 0.597D+00
 Coeff-En:   0.000D+00 0.000D+00 0.000D+00 0.000D+00 0.000D+00 0.000D+00
 Coeff-En:   0.167D+00 0.833D+00
 Coeff:     -0.698D-02 0.738D-02-0.301D-02-0.265D-02 0.517D-01 0.432D-01
 Coeff:      0.309D+00 0.602D+00
 Gap=     0.105 Goal=   None    Shift=    0.000
 RMSDP=1.80D-04 MaxDP=1.17D-02 DE=-1.76D-02 OVMax= 1.89D-02

 Cycle   9  Pass 1  IDiag  1:
 RMSU=  1.32D-04    CP:  9.60D-01  9.59D-02  5.68D-01  1.71D-01  7.25D-01
                    CP:  5.17D-01  6.65D-01  6.93D-01
 E= -1765.61526833898     Delta-E=       -0.003201115444 Rises=F Damp=F
 DIIS: error= 9.75D-04 at cycle   9 NSaved=   9.
 NSaved= 9 IEnMin= 9 EnMin= -1765.61526833898     IErMin= 9 ErrMin= 9.75D-04
 ErrMax= 9.75D-04  0.00D+00 EMaxC= 1.00D-01 BMatC= 1.08D-03 BMatP= 4.97D-03
 IDIUse=3 WtCom= 9.90D-01 WtEn= 9.75D-03
 Coeff-Com: -0.139D-02 0.206D-02-0.605D-03-0.746D-03 0.542D-02-0.293D-02
 Coeff-Com:  0.151D+00 0.412D+00 0.435D+00
 Coeff-En:   0.000D+00 0.000D+00 0.000D+00 0.000D+00 0.000D+00 0.000D+00
 Coeff-En:   0.000D+00 0.156D+00 0.844D+00
 Coeff:     -0.137D-02 0.204D-02-0.599D-03-0.739D-03 0.536D-02-0.290D-02
 Coeff:      0.150D+00 0.410D+00 0.439D+00
 Gap=     0.106 Goal=   None    Shift=    0.000
 RMSDP=8.56D-05 MaxDP=5.04D-03 DE=-3.20D-03 OVMax= 7.14D-03

 Cycle  10  Pass 1  IDiag  1:
 RMSU=  4.54D-05    CP:  9.59D-01  9.61D-02  5.69D-01  1.71D-01  7.23D-01
                    CP:  5.06D-01  6.89D-01  7.56D-01  5.16D-01
 E= -1765.61614297918     Delta-E=       -0.000874640193 Rises=F Damp=F
 DIIS: error= 1.96D-04 at cycle  10 NSaved=  10.
 NSaved=10 IEnMin=10 EnMin= -1765.61614297918     IErMin=10 ErrMin= 1.96D-04
 ErrMax= 1.96D-04  0.00D+00 EMaxC= 1.00D-01 BMatC= 7.47D-05 BMatP= 1.08D-03
 IDIUse=3 WtCom= 9.98D-01 WtEn= 1.96D-03
 Coeff-Com:  0.293D-03-0.107D-02-0.148D-02-0.180D-03-0.108D-02-0.317D-02
 Coeff-Com:  0.581D-01 0.170D+00 0.244D+00 0.534D+00
 Coeff-En:   0.000D+00 0.000D+00 0.000D+00 0.000D+00 0.000D+00 0.000D+00
 Coeff-En:   0.000D+00 0.000D+00 0.000D+00 0.100D+01
 Coeff:      0.292D-03-0.107D-02-0.147D-02-0.180D-03-0.107D-02-0.317D-02
 Coeff:      0.580D-01 0.170D+00 0.244D+00 0.535D+00
 Gap=     0.106 Goal=   None    Shift=    0.000
 RMSDP=1.83D-05 MaxDP=1.03D-03 DE=-8.75D-04 OVMax= 1.44D-03

 Cycle  11  Pass 1  IDiag  1:
 RMSU=  1.39D-05    CP:  9.60D-01  9.59D-02  5.68D-01  1.71D-01  7.23D-01
                    CP:  5.08D-01  6.95D-01  7.60D-01  5.59D-01  8.37D-01
 E= -1765.61620256677     Delta-E=       -0.000059587592 Rises=F Damp=F
 DIIS: error= 1.12D-04 at cycle  11 NSaved=  11.
 NSaved=11 IEnMin=11 EnMin= -1765.61620256677     IErMin=11 ErrMin= 1.12D-04
 ErrMax= 1.12D-04  0.00D+00 EMaxC= 1.00D-01 BMatC= 1.05D-05 BMatP= 7.47D-05
 IDIUse=3 WtCom= 9.99D-01 WtEn= 1.12D-03
 Coeff-Com:  0.521D-03-0.714D-03-0.102D-02-0.754D-04-0.186D-02-0.914D-03
 Coeff-Com:  0.159D-01 0.473D-01 0.889D-01 0.279D+00 0.573D+00
 Coeff-En:   0.000D+00 0.000D+00 0.000D+00 0.000D+00 0.000D+00 0.000D+00
 Coeff-En:   0.000D+00 0.000D+00 0.000D+00 0.000D+00 0.100D+01
 Coeff:      0.520D-03-0.713D-03-0.102D-02-0.754D-04-0.185D-02-0.913D-03
 Coeff:      0.159D-01 0.473D-01 0.888D-01 0.279D+00 0.573D+00
 Gap=     0.106 Goal=   None    Shift=    0.000
 RMSDP=7.36D-06 MaxDP=3.48D-04 DE=-5.96D-05 OVMax= 6.74D-04

 Cycle  12  Pass 1  IDiag  1:
 RMSU=  6.00D-06    CP:  9.59D-01  9.58D-02  5.68D-01  1.71D-01  7.23D-01
                    CP:  5.09D-01  6.95D-01  7.65D-01  5.73D-01  8.83D-01
                    CP:  8.59D-01
 E= -1765.61620976895     Delta-E=       -0.000007202187 Rises=F Damp=F
 DIIS: error= 4.21D-05 at cycle  12 NSaved=  12.
 NSaved=12 IEnMin=12 EnMin= -1765.61620976895     IErMin=12 ErrMin= 4.21D-05
 ErrMax= 4.21D-05  0.00D+00 EMaxC= 1.00D-01 BMatC= 3.53D-06 BMatP= 1.05D-05
 IDIUse=1 WtCom= 1.00D+00 WtEn= 0.00D+00
 Coeff-Com:  0.234D-03-0.249D-03-0.671D-03-0.441D-04-0.106D-02 0.717D-03
 Coeff-Com:  0.911D-03-0.691D-03 0.901D-02 0.318D-01 0.324D+00 0.636D+00
 Coeff:      0.234D-03-0.249D-03-0.671D-03-0.441D-04-0.106D-02 0.717D-03
 Coeff:      0.911D-03-0.691D-03 0.901D-02 0.318D-01 0.324D+00 0.636D+00
 Gap=     0.106 Goal=   None    Shift=    0.000
 RMSDP=4.28D-06 MaxDP=2.78D-04 DE=-7.20D-06 OVMax= 4.29D-04

 Cycle  13  Pass 1  IDiag  1:
 RMSU=  2.94D-06    CP:  9.59D-01  9.57D-02  5.68D-01  1.71D-01  7.23D-01
                    CP:  5.09D-01  6.97D-01  7.66D-01  5.78D-01  8.98D-01
                    CP:  9.95D-01  8.41D-01
 E= -1765.61621258666     Delta-E=       -0.000002817710 Rises=F Damp=F
 DIIS: error= 2.54D-05 at cycle  13 NSaved=  13.
 NSaved=13 IEnMin=13 EnMin= -1765.61621258666     IErMin=13 ErrMin= 2.54D-05
 ErrMax= 2.54D-05  0.00D+00 EMaxC= 1.00D-01 BMatC= 6.82D-07 BMatP= 3.53D-06
 IDIUse=1 WtCom= 1.00D+00 WtEn= 0.00D+00
 Coeff-Com:  0.581D-04-0.660D-04-0.258D-03-0.104D-04-0.269D-03 0.813D-03
 Coeff-Com: -0.319D-02-0.122D-01-0.169D-01-0.673D-01 0.423D-01 0.405D+00
 Coeff-Com:  0.652D+00
 Coeff:      0.581D-04-0.660D-04-0.258D-03-0.104D-04-0.269D-03 0.813D-03
 Coeff:     -0.319D-02-0.122D-01-0.169D-01-0.673D-01 0.423D-01 0.405D+00
 Coeff:      0.652D+00
 Gap=     0.106 Goal=   None    Shift=    0.000
 RMSDP=2.33D-06 MaxDP=1.90D-04 DE=-2.82D-06 OVMax= 2.82D-04

 Cycle  14  Pass 1  IDiag  1:
 RMSU=  1.39D-06    CP:  9.59D-01  9.57D-02  5.68D-01  1.71D-01  7.23D-01
                    CP:  5.10D-01  6.97D-01  7.66D-01  5.80D-01  9.09D-01
                    CP:  1.04D+00  9.98D-01  7.57D-01
 E= -1765.61621315625     Delta-E=       -0.000000569587 Rises=F Damp=F
 DIIS: error= 8.02D-06 at cycle  14 NSaved=  14.
 NSaved=14 IEnMin=14 EnMin= -1765.61621315625     IErMin=14 ErrMin= 8.02D-06
 ErrMax= 8.02D-06  0.00D+00 EMaxC= 1.00D-01 BMatC= 9.89D-08 BMatP= 6.82D-07
 IDIUse=1 WtCom= 1.00D+00 WtEn= 0.00D+00
 Coeff-Com: -0.684D-06 0.520D-04-0.533D-04-0.594D-05-0.414D-04 0.287D-03
 Coeff-Com: -0.692D-03-0.310D-02-0.590D-02-0.350D-01-0.179D-01 0.124D+00
 Coeff-Com:  0.400D+00 0.539D+00
 Coeff:     -0.684D-06 0.520D-04-0.533D-04-0.594D-05-0.414D-04 0.287D-03
 Coeff:     -0.692D-03-0.310D-02-0.590D-02-0.350D-01-0.179D-01 0.124D+00
 Coeff:      0.400D+00 0.539D+00
 Gap=     0.106 Goal=   None    Shift=    0.000
 RMSDP=7.85D-07 MaxDP=4.40D-05 DE=-5.70D-07 OVMax= 8.38D-05

 Cycle  15  Pass 1  IDiag  1:
 RMSU=  5.37D-07    CP:  9.59D-01  9.57D-02  5.68D-01  1.71D-01  7.23D-01
                    CP:  5.10D-01  6.97D-01  7.67D-01  5.80D-01  9.07D-01
                    CP:  1.05D+00  9.99D-01  8.39D-01  6.66D-01
 E= -1765.61621323720     Delta-E=       -0.000000080949 Rises=F Damp=F
 DIIS: error= 2.68D-06 at cycle  15 NSaved=  15.
 NSaved=15 IEnMin=15 EnMin= -1765.61621323720     IErMin=15 ErrMin= 2.68D-06
 ErrMax= 2.68D-06  0.00D+00 EMaxC= 1.00D-01 BMatC= 8.78D-09 BMatP= 9.89D-08
 IDIUse=1 WtCom= 1.00D+00 WtEn= 0.00D+00
 Coeff-Com: -0.434D-06 0.262D-04-0.429D-05-0.391D-05 0.192D-04 0.541D-04
 Coeff-Com: -0.936D-04-0.370D-03-0.125D-02-0.118D-01-0.151D-01 0.202D-01
 Coeff-Com:  0.141D+00 0.291D+00 0.576D+00
 Coeff:     -0.434D-06 0.262D-04-0.429D-05-0.391D-05 0.192D-04 0.541D-04
 Coeff:     -0.936D-04-0.370D-03-0.125D-02-0.118D-01-0.151D-01 0.202D-01
 Coeff:      0.141D+00 0.291D+00 0.576D+00
 Gap=     0.106 Goal=   None    Shift=    0.000
 RMSDP=2.47D-07 MaxDP=1.25D-05 DE=-8.09D-08 OVMax= 2.31D-05

 Cycle  16  Pass 1  IDiag  1:
 RMSU=  1.91D-07    CP:  9.59D-01  9.57D-02  5.68D-01  1.71D-01  7.23D-01
                    CP:  5.10D-01  6.97D-01  7.67D-01  5.80D-01  9.07D-01
                    CP:  1.05D+00  1.00D+00  8.53D-01  7.28D-01  8.11D-01
 E= -1765.61621324477     Delta-E=       -0.000000007569 Rises=F Damp=F
 DIIS: error= 1.24D-06 at cycle  16 NSaved=  16.
 NSaved=16 IEnMin=16 EnMin= -1765.61621324477     IErMin=16 ErrMin= 1.24D-06
 ErrMax= 1.24D-06  0.00D+00 EMaxC= 1.00D-01 BMatC= 1.34D-09 BMatP= 8.78D-09
 IDIUse=1 WtCom= 1.00D+00 WtEn= 0.00D+00
 Coeff-Com:  0.890D-06 0.443D-05 0.137D-05-0.126D-05 0.212D-04-0.109D-04
 Coeff-Com:  0.809D-04 0.346D-03 0.322D-03-0.156D-02-0.660D-02-0.765D-02
 Coeff-Com:  0.237D-01 0.964D-01 0.333D+00 0.562D+00
 Coeff:      0.890D-06 0.443D-05 0.137D-05-0.126D-05 0.212D-04-0.109D-04
 Coeff:      0.809D-04 0.346D-03 0.322D-03-0.156D-02-0.660D-02-0.765D-02
 Coeff:      0.237D-01 0.964D-01 0.333D+00 0.562D+00
 Gap=     0.106 Goal=   None    Shift=    0.000
 RMSDP=1.05D-07 MaxDP=6.40D-06 DE=-7.57D-09 OVMax= 9.67D-06

 Cycle  17  Pass 1  IDiag  1:
 RMSU=  7.55D-08    CP:  9.59D-01  9.57D-02  5.68D-01  1.71D-01  7.23D-01
                    CP:  5.10D-01  6.97D-01  7.67D-01  5.81D-01  9.07D-01
                    CP:  1.05D+00  1.01D+00  8.59D-01  7.41D-01  8.72D-01
                    CP:  7.47D-01
 E= -1765.61621324602     Delta-E=       -0.000000001253 Rises=F Damp=F
 DIIS: error= 4.35D-07 at cycle  17 NSaved=  17.
 NSaved=17 IEnMin=17 EnMin= -1765.61621324602     IErMin=17 ErrMin= 4.35D-07
 ErrMax= 4.35D-07  0.00D+00 EMaxC= 1.00D-01 BMatC= 1.54D-10 BMatP= 1.34D-09
 IDIUse=1 WtCom= 1.00D+00 WtEn= 0.00D+00
 Coeff-Com:  0.444D-06-0.157D-05 0.209D-05-0.400D-06 0.150D-04-0.108D-04
 Coeff-Com:  0.426D-04 0.188D-03 0.246D-03 0.306D-03-0.261D-02-0.752D-02
 Coeff-Com: -0.448D-02 0.181D-01 0.117D+00 0.312D+00 0.567D+00
 Coeff:      0.444D-06-0.157D-05 0.209D-05-0.400D-06 0.150D-04-0.108D-04
 Coeff:      0.426D-04 0.188D-03 0.246D-03 0.306D-03-0.261D-02-0.752D-02
 Coeff:     -0.448D-02 0.181D-01 0.117D+00 0.312D+00 0.567D+00
 Gap=     0.106 Goal=   None    Shift=    0.000
 RMSDP=4.18D-08 MaxDP=4.15D-06 DE=-1.25D-09 OVMax= 6.19D-06

 Cycle  18  Pass 1  IDiag  1:
 RMSU=  2.77D-08    CP:  9.59D-01  9.57D-02  5.68D-01  1.71D-01  7.23D-01
                    CP:  5.10D-01  6.97D-01  7.67D-01  5.81D-01  9.07D-01
                    CP:  1.05D+00  1.01D+00  8.64D-01  7.51D-01  8.86D-01
                    CP:  8.21D-01  8.65D-01
 E= -1765.61621324610     Delta-E=       -0.000000000075 Rises=F Damp=F
 DIIS: error= 1.53D-07 at cycle  18 NSaved=  18.
 NSaved=18 IEnMin=18 EnMin= -1765.61621324610     IErMin=18 ErrMin= 1.53D-07
 ErrMax= 1.53D-07  0.00D+00 EMaxC= 1.00D-01 BMatC= 3.53D-11 BMatP= 1.54D-10
 IDIUse=1 WtCom= 1.00D+00 WtEn= 0.00D+00
 Coeff-Com:  0.127D-06-0.101D-05 0.121D-05-0.103D-06 0.346D-05-0.459D-05
 Coeff-Com:  0.195D-04 0.619D-04 0.112D-03 0.526D-03-0.119D-03-0.228D-02
 Coeff-Com: -0.574D-02-0.611D-02 0.954D-02 0.764D-01 0.322D+00 0.605D+00
 Coeff:      0.127D-06-0.101D-05 0.121D-05-0.103D-06 0.346D-05-0.459D-05
 Coeff:      0.195D-04 0.619D-04 0.112D-03 0.526D-03-0.119D-03-0.228D-02
 Coeff:     -0.574D-02-0.611D-02 0.954D-02 0.764D-01 0.322D+00 0.605D+00
 Gap=     0.106 Goal=   None    Shift=    0.000
 RMSDP=1.66D-08 MaxDP=1.49D-06 DE=-7.55D-11 OVMax= 1.90D-06

 Cycle  19  Pass 1  IDiag  1:
 RMSU=  1.07D-08    CP:  9.59D-01  9.57D-02  5.68D-01  1.71D-01  7.23D-01
                    CP:  5.10D-01  6.97D-01  7.67D-01  5.81D-01  9.07D-01
                    CP:  1.05D+00  1.01D+00  8.64D-01  7.53D-01  8.98D-01
                    CP:  8.39D-01  9.56D-01  8.23D-01
 E= -1765.61621324618     Delta-E=       -0.000000000085 Rises=F Damp=F
 DIIS: error= 4.94D-08 at cycle  19 NSaved=  19.
 NSaved=19 IEnMin=19 EnMin= -1765.61621324618     IErMin=19 ErrMin= 4.94D-08
 ErrMax= 4.94D-08  0.00D+00 EMaxC= 1.00D-01 BMatC= 5.30D-12 BMatP= 3.53D-11
 IDIUse=1 WtCom= 1.00D+00 WtEn= 0.00D+00
 Coeff-Com:  0.286D-07-0.360D-06 0.530D-06 0.244D-08-0.511D-06-0.135D-05
 Coeff-Com:  0.623D-05 0.984D-05 0.329D-04 0.285D-03 0.326D-03-0.131D-03
 Coeff-Com: -0.262D-02-0.613D-02-0.973D-02 0.273D-02 0.113D+00 0.348D+00
 Coeff-Com:  0.554D+00
 Coeff:      0.286D-07-0.360D-06 0.530D-06 0.244D-08-0.511D-06-0.135D-05
 Coeff:      0.623D-05 0.984D-05 0.329D-04 0.285D-03 0.326D-03-0.131D-03
 Coeff:     -0.262D-02-0.613D-02-0.973D-02 0.273D-02 0.113D+00 0.348D+00
 Coeff:      0.554D+00
 Gap=     0.106 Goal=   None    Shift=    0.000
 RMSDP=7.08D-09 MaxDP=6.46D-07 DE=-8.46D-11 OVMax= 8.23D-07

 Error on total polarization charges =  0.01197
 SCF Done:  E(RB3LYP) =  -1765.61621325     A.U. after   19 cycles
            NFock= 19  Conv=0.71D-08     -V/T= 2.0440
 KE= 1.691205878510D+03 PE=-1.099249625727D+04 EE= 4.093684580721D+03
 Leave Link  502 at Tue Oct  4 13:16:06 2022, MaxMem=   536870912 cpu:            8412.0 elap:             265.9
 (Enter /sw/arch/Centos8/EB_production/2021/software/Gaussian/g16.c01/l601.exe)
 Copying SCF densities to generalized density rwf, IOpCl= 0 IROHF=0.

 **********************************************************************

            Population analysis using the SCF Density.

 **********************************************************************

 Orbital symmetries:
       Occupied  (A) (A) (A) (A) (A) (A) (A) (A) (A) (A) (A) (A)
                 (A) (A) (A) (A) (A) (A) (A) (A) (A) (A) (A) (A)
                 (A) (A) (A) (A) (A) (A) (A) (A) (A) (A) (A) (A)
                 (A) (A) (A) (A) (A) (A) (A) (A) (A) (A) (A) (A)
                 (A) (A) (A) (A) (A) (A) (A) (A) (A) (A) (A) (A)
                 (A) (A) (A) (A) (A) (A) (A) (A) (A) (A) (A) (A)
                 (A) (A) (A) (A) (A) (A) (A) (A) (A) (A) (A) (A)
                 (A) (A) (A) (A) (A) (A) (A) (A) (A) (A) (A) (A)
                 (A) (A) (A) (A) (A) (A) (A) (A) (A) (A) (A) (A)
                 (A) (A) (A)
       Virtual   (A) (A) (A) (A) (A) (A) (A) (A) (A) (A) (A) (A)
                 (A) (A) (A) (A) (A) (A) (A) (A) (A) (A) (A) (A)
                 (A) (A) (A) (A) (A) (A) (A) (A) (A) (A) (A) (A)
                 (A) (A) (A) (A) (A) (A) (A) (A) (A) (A) (A) (A)
                 (A) (A) (A) (A) (A) (A) (A) (A) (A) (A) (A) (A)
                 (A) (A) (A) (A) (A) (A) (A) (A) (A) (A) (A) (A)
                 (A) (A) (A) (A) (A) (A) (A) (A) (A) (A) (A) (A)
                 (A) (A) (A) (A) (A) (A) (A) (A) (A) (A) (A) (A)
                 (A) (A) (A) (A) (A) (A) (A) (A) (A) (A) (A) (A)
                 (A) (A) (A) (A) (A) (A) (A) (A) (A) (A) (A) (A)
                 (A) (A) (A) (A) (A) (A) (A) (A) (A) (A) (A) (A)
                 (A) (A) (A) (A) (A) (A) (A) (A) (A) (A) (A) (A)
                 (A) (A) (A) (A) (A) (A) (A) (A) (A) (A) (A) (A)
                 (A) (A) (A) (A) (A) (A) (A) (A) (A) (A) (A) (A)
                 (A) (A) (A) (A) (A) (A) (A) (A) (A) (A) (A) (A)
                 (A) (A) (A) (A) (A) (A) (A) (A) (A) (A) (A) (A)
                 (A) (A) (A) (A) (A) (A) (A) (A) (A) (A) (A) (A)
                 (A) (A) (A) (A) (A) (A) (A) (A) (A) (A) (A) (A)
                 (A) (A) (A) (A) (A) (A) (A) (A) (A) (A) (A) (A)
                 (A) (A) (A) (A) (A) (A) (A) (A) (A) (A) (A) (A)
                 (A) (A) (A) (A) (A) (A) (A) (A) (A) (A) (A) (A)
                 (A) (A) (A) (A) (A) (A) (A) (A) (A) (A) (A) (A)
                 (A) (A) (A) (A) (A) (A) (A) (A) (A) (A) (A) (A)
                 (A) (A) (A) (A) (A) (A) (A) (A) (A) (A) (A) (A)
                 (A) (A) (A) (A) (A) (A) (A) (A) (A) (A) (A) (A)
                 (A) (A) (A) (A) (A) (A) (A) (A) (A) (A) (A) (A)
                 (A) (A) (A) (A) (A) (A) (A) (A) (A) (A) (A) (A)
                 (A) (A) (A) (A) (A) (A) (A) (A) (A) (A) (A) (A)
                 (A) (A) (A) (A) (A) (A) (A) (A) (A) (A) (A) (A)
                 (A) (A) (A) (A) (A) (A) (A) (A) (A) (A) (A) (A)
                 (A) (A) (A) (A) (A) (A) (A) (A) (A) (A) (A) (A)
                 (A) (A) (A) (A) (A) (A) (A) (A) (A) (A) (A) (A)
                 (A) (A) (A) (A) (A) (A) (A)
 The electronic state is 1-A.
 Alpha  occ. eigenvalues --  -89.00764 -19.12410 -19.11952 -19.11688 -19.09907
 Alpha  occ. eigenvalues --  -19.09827 -14.40253 -14.39353 -14.38572 -10.29859
 Alpha  occ. eigenvalues --  -10.29827 -10.26997 -10.26903 -10.26604 -10.26370
 Alpha  occ. eigenvalues --  -10.25081 -10.24665 -10.23031 -10.22888 -10.22823
 Alpha  occ. eigenvalues --  -10.22751 -10.22705 -10.22632 -10.22524 -10.22453
 Alpha  occ. eigenvalues --  -10.22372 -10.22254 -10.21909  -8.08403  -6.05221
 Alpha  occ. eigenvalues --   -6.05092  -6.04786  -3.03530  -1.88033  -1.87881
 Alpha  occ. eigenvalues --   -1.86508  -1.04601  -1.04377  -1.03470  -1.00556
 Alpha  occ. eigenvalues --   -0.98467  -0.96836  -0.95423  -0.95318  -0.83882
 Alpha  occ. eigenvalues --   -0.82945  -0.82178  -0.81721  -0.81283  -0.79780
 Alpha  occ. eigenvalues --   -0.76439  -0.73169  -0.69581  -0.68274  -0.67193
 Alpha  occ. eigenvalues --   -0.65876  -0.63535  -0.63060  -0.62605  -0.59633
 Alpha  occ. eigenvalues --   -0.56434  -0.54439  -0.54195  -0.52114  -0.51803
 Alpha  occ. eigenvalues --   -0.51639  -0.50661  -0.49761  -0.49485  -0.48650
 Alpha  occ. eigenvalues --   -0.48462  -0.48326  -0.47720  -0.47144  -0.46700
 Alpha  occ. eigenvalues --   -0.46176  -0.45718  -0.44753  -0.43986  -0.43794
 Alpha  occ. eigenvalues --   -0.43512  -0.42720  -0.42610  -0.42396  -0.41565
 Alpha  occ. eigenvalues --   -0.41052  -0.40879  -0.40729  -0.40257  -0.40078
 Alpha  occ. eigenvalues --   -0.39721  -0.38391  -0.37184  -0.35118  -0.33866
 Alpha  occ. eigenvalues --   -0.33826  -0.33244  -0.32036  -0.31149  -0.30128
 Alpha  occ. eigenvalues --   -0.29851  -0.29797  -0.28972  -0.28138  -0.27567
 Alpha  occ. eigenvalues --   -0.26339  -0.26221  -0.25902  -0.23334  -0.21688
 Alpha  occ. eigenvalues --   -0.19921
 Alpha virt. eigenvalues --   -0.09328  -0.08859  -0.06905  -0.06627  -0.03747
 Alpha virt. eigenvalues --   -0.03064  -0.00852   0.00420   0.02904   0.03584
 Alpha virt. eigenvalues --    0.04437   0.04609   0.05719   0.06146   0.06722
 Alpha virt. eigenvalues --    0.06897   0.07328   0.07881   0.08116   0.08884
 Alpha virt. eigenvalues --    0.09474   0.10326   0.10941   0.11011   0.12382
 Alpha virt. eigenvalues --    0.12887   0.13246   0.13986   0.14176   0.14686
 Alpha virt. eigenvalues --    0.14926   0.15654   0.16586   0.17433   0.18778
 Alpha virt. eigenvalues --    0.18920   0.19743   0.21757   0.22900   0.22984
 Alpha virt. eigenvalues --    0.24296   0.24619   0.25455   0.26055   0.26708
 Alpha virt. eigenvalues --    0.27580   0.27737   0.28072   0.29749   0.30823
 Alpha virt. eigenvalues --    0.31053   0.31844   0.32154   0.33384   0.34138
 Alpha virt. eigenvalues --    0.34575   0.34708   0.35875   0.36900   0.37379
 Alpha virt. eigenvalues --    0.37974   0.38392   0.39490   0.39839   0.40254
 Alpha virt. eigenvalues --    0.41437   0.41664   0.42422   0.42947   0.43310
 Alpha virt. eigenvalues --    0.43653   0.43975   0.44431   0.45200   0.45626
 Alpha virt. eigenvalues --    0.46103   0.46512   0.47353   0.48185   0.48725
 Alpha virt. eigenvalues --    0.49387   0.49590   0.50060   0.50483   0.51378
 Alpha virt. eigenvalues --    0.52220   0.52458   0.53421   0.53887   0.54391
 Alpha virt. eigenvalues --    0.54743   0.55373   0.55624   0.56901   0.57659
 Alpha virt. eigenvalues --    0.58008   0.58981   0.59516   0.60056   0.60823
 Alpha virt. eigenvalues --    0.61279   0.61533   0.62416   0.62565   0.63078
 Alpha virt. eigenvalues --    0.63199   0.63896   0.64065   0.64231   0.64691
 Alpha virt. eigenvalues --    0.65050   0.65464   0.66026   0.66096   0.66804
 Alpha virt. eigenvalues --    0.66946   0.67852   0.68118   0.68491   0.68841
 Alpha virt. eigenvalues --    0.69033   0.69667   0.69911   0.70215   0.70328
 Alpha virt. eigenvalues --    0.70914   0.71611   0.71907   0.72488   0.73287
 Alpha virt. eigenvalues --    0.73709   0.74099   0.74417   0.75656   0.76053
 Alpha virt. eigenvalues --    0.77157   0.77881   0.78544   0.78989   0.80223
 Alpha virt. eigenvalues --    0.80798   0.81417   0.81982   0.84793   0.85606
 Alpha virt. eigenvalues --    0.86836   0.87519   0.88452   0.89265   0.90391
 Alpha virt. eigenvalues --    0.91156   0.92578   0.94387   0.95071   0.96286
 Alpha virt. eigenvalues --    0.97346   0.98337   0.99002   1.01128   1.01306
 Alpha virt. eigenvalues --    1.02761   1.03798   1.04745   1.05342   1.06801
 Alpha virt. eigenvalues --    1.07126   1.07548   1.08118   1.09574   1.10530
 Alpha virt. eigenvalues --    1.11116   1.11697   1.12882   1.14003   1.14244
 Alpha virt. eigenvalues --    1.14956   1.15571   1.17020   1.17389   1.18194
 Alpha virt. eigenvalues --    1.19748   1.19982   1.20513   1.21038   1.21703
 Alpha virt. eigenvalues --    1.22541   1.22886   1.23293   1.23562   1.24064
 Alpha virt. eigenvalues --    1.25126   1.26542   1.28258   1.29455   1.29908
 Alpha virt. eigenvalues --    1.31288   1.32698   1.33633   1.35869   1.36856
 Alpha virt. eigenvalues --    1.38141   1.38297   1.39532   1.40667   1.40930
 Alpha virt. eigenvalues --    1.43265   1.43850   1.45838   1.47386   1.48384
 Alpha virt. eigenvalues --    1.49641   1.50678   1.51324   1.52626   1.53101
 Alpha virt. eigenvalues --    1.54820   1.56307   1.58974   1.60123   1.60727
 Alpha virt. eigenvalues --    1.61327   1.62389   1.64568   1.65270   1.66296
 Alpha virt. eigenvalues --    1.66880   1.67593   1.68071   1.68484   1.69165
 Alpha virt. eigenvalues --    1.69913   1.70397   1.70762   1.71039   1.71481
 Alpha virt. eigenvalues --    1.71517   1.72968   1.73407   1.74027   1.75011
 Alpha virt. eigenvalues --    1.75378   1.75712   1.77141   1.77757   1.77951
 Alpha virt. eigenvalues --    1.78094   1.78413   1.79965   1.80099   1.80967
 Alpha virt. eigenvalues --    1.81711   1.82615   1.83854   1.84733   1.85789
 Alpha virt. eigenvalues --    1.87634   1.88103   1.89747   1.90089   1.91630
 Alpha virt. eigenvalues --    1.92512   1.92812   1.93448   1.93927   1.94110
 Alpha virt. eigenvalues --    1.94896   1.95640   1.95984   1.96633   1.96920
 Alpha virt. eigenvalues --    1.97121   1.97613   1.98481   1.99914   2.00351
 Alpha virt. eigenvalues --    2.00899   2.01200   2.03314   2.03732   2.04173
 Alpha virt. eigenvalues --    2.05042   2.06279   2.07323   2.08137   2.08837
 Alpha virt. eigenvalues --    2.09851   2.11028   2.12734   2.14824   2.15152
 Alpha virt. eigenvalues --    2.16006   2.17031   2.17696   2.19261   2.19628
 Alpha virt. eigenvalues --    2.19991   2.20789   2.22344   2.24481   2.25264
 Alpha virt. eigenvalues --    2.26689   2.28717   2.28970   2.31010   2.33255
 Alpha virt. eigenvalues --    2.34294   2.34928   2.35519   2.36855   2.38241
 Alpha virt. eigenvalues --    2.38811   2.39105   2.40174   2.40534   2.40928
 Alpha virt. eigenvalues --    2.41352   2.42058   2.42183   2.44044   2.46596
 Alpha virt. eigenvalues --    2.49203   2.49440   2.52539   2.54343   2.55151
 Alpha virt. eigenvalues --    2.56399   2.57365   2.58910   2.59856   2.63763
 Alpha virt. eigenvalues --    2.65109   2.65849   2.66292   2.67265   2.67381
 Alpha virt. eigenvalues --    2.68062   2.68325   2.68710   2.69650   2.70237
 Alpha virt. eigenvalues --    2.70992   2.71449   2.72775   2.73062   2.74332
 Alpha virt. eigenvalues --    2.74761   2.76015   2.76775   2.77718   2.78218
 Alpha virt. eigenvalues --    2.79210   2.79944   2.80146   2.80921   2.81682
 Alpha virt. eigenvalues --    2.85420   2.87359   2.88491   2.89942   2.91070
 Alpha virt. eigenvalues --    2.91870   2.92373   2.94753   2.97512   2.99611
 Alpha virt. eigenvalues --    3.00805   3.02397   3.02840   3.03749   3.05057
 Alpha virt. eigenvalues --    3.06568   3.07387   3.08414   3.09457   3.16995
 Alpha virt. eigenvalues --    3.23144   3.23515   3.25480   3.32950   3.33322
 Alpha virt. eigenvalues --    3.34671   3.35475   3.42675   3.48882   3.55895
 Alpha virt. eigenvalues --    3.62988   3.63678   3.64581   3.69542   3.71832
 Alpha virt. eigenvalues --   45.17723
          Condensed to atoms (all electrons):
               1          2          3          4          5          6
     1  H    0.658694   0.432740  -0.060495  -0.061621  -0.010614   0.013294
     2  C    0.432740   4.892339   0.329537   0.342334  -0.056458   0.038091
     3  C   -0.060495   0.329537   5.027875   0.057633   0.428825   0.415903
     4  C   -0.061621   0.342334   0.057633   5.025154   0.011736  -0.083091
     5  H   -0.010614  -0.056458   0.428825   0.011736   0.655760  -0.034143
     6  C    0.013294   0.038091   0.415903  -0.083091  -0.034143   5.189318
     7  H   -0.010862  -0.055801   0.011983   0.429738  -0.000201  -0.000350
     8  C    0.012985   0.035299  -0.083469   0.401651  -0.000233  -0.005603
     9  C   -0.000471   0.014785  -0.073663   0.000427  -0.028876   0.186698
    10  N    0.000315  -0.050079  -0.043381  -0.040558   0.006005   0.355333
    11  C   -0.000421   0.012724   0.001439  -0.080540   0.000031   0.006776
    12  C    0.000029   0.000407  -0.011711  -0.000062   0.005471  -0.081678
    13  N    0.000001  -0.000075   0.005671   0.000087  -0.000099  -0.057752
    14  Ru   0.000183  -0.010085   0.010559   0.014064   0.001920  -0.096956
    15  C    0.000021   0.000466  -0.000020  -0.009732  -0.000001  -0.000285
    16  N    0.000002  -0.000133   0.000046   0.005793   0.000001   0.002673
    17  H    0.000003   0.000408   0.004498  -0.000013  -0.000737  -0.026703
    18  C   -0.000000  -0.000033   0.000464   0.000003   0.000404   0.015254
    19  C   -0.000000   0.000001  -0.000235  -0.000005  -0.000014   0.008513
    20  O   -0.000000  -0.000000  -0.000001  -0.000000   0.000000  -0.000376
    21  O    0.000000  -0.000001   0.000003   0.000004   0.000000  -0.000505
    22  S   -0.000001   0.000198   0.000144   0.000103  -0.000007   0.000262
    23  H    0.000003   0.000340  -0.000011   0.005496  -0.000000  -0.000007
    24  C   -0.000000  -0.000033   0.000003   0.000291   0.000000   0.000009
    25  C   -0.000000   0.000010  -0.000003  -0.000080   0.000000   0.000308
    26  H   -0.000000  -0.000000   0.000026   0.000000   0.000002  -0.000504
    27  C    0.000000   0.000003  -0.000026  -0.000000  -0.000008   0.000356
    28  C   -0.000000  -0.000000  -0.000003  -0.000000   0.000000  -0.000540
    29  C    0.000000  -0.000000  -0.000002  -0.000002   0.000000  -0.000129
    30  C   -0.000000  -0.000067  -0.000150  -0.000030   0.000001  -0.003357
    31  C   -0.000000   0.000000  -0.000000   0.000011  -0.000000   0.000183
    32  O   -0.000006  -0.000758   0.000361   0.001467  -0.000001   0.001985
    33  H   -0.000002   0.000064   0.000143   0.000012  -0.000014   0.002550
    34  H    0.000000   0.000003  -0.000006   0.000001  -0.000002   0.000260
    35  H    0.000000   0.000006  -0.000002   0.000002  -0.000001  -0.000043
    36  H   -0.000000  -0.000000   0.000000  -0.000005  -0.000000  -0.000002
    37  H    0.000000   0.000000  -0.000000  -0.000000  -0.000000  -0.000022
    38  H    0.000000   0.000000  -0.000000   0.000000  -0.000000  -0.000003
    39  H   -0.000000  -0.000000   0.000000   0.000017  -0.000000  -0.000000
    40  C    0.000000   0.000004  -0.000001  -0.000045  -0.000000  -0.000003
    41  H   -0.000000   0.000000  -0.000001  -0.000000  -0.000000   0.000037
    42  O   -0.000000  -0.000000  -0.000000  -0.000000   0.000000  -0.000000
    43  O   -0.000000   0.000000  -0.000000  -0.000000  -0.000000  -0.000000
    44  H   -0.000000   0.000000  -0.000000  -0.000001  -0.000000   0.000000
               7          8          9         10         11         12
     1  H   -0.010862   0.012985  -0.000471   0.000315  -0.000421   0.000029
     2  C   -0.055801   0.035299   0.014785  -0.050079   0.012724   0.000407
     3  C    0.011983  -0.083469  -0.073663  -0.043381   0.001439  -0.011711
     4  C    0.429738   0.401651   0.000427  -0.040558  -0.080540  -0.000062
     5  H   -0.000201  -0.000233  -0.028876   0.006005   0.000031   0.005471
     6  C   -0.000350  -0.005603   0.186698   0.355333   0.006776  -0.081678
     7  H    0.653944  -0.038925   0.000033   0.005587  -0.022814  -0.000001
     8  C   -0.038925   5.107459   0.005219   0.353809   0.229855  -0.000265
     9  C    0.000033   0.005219   5.182988  -0.058326  -0.000030   0.401320
    10  N    0.005587   0.353809  -0.058326   6.640372  -0.068404   0.006186
    11  C   -0.022814   0.229855  -0.000030  -0.068404   5.139971   0.000003
    12  C   -0.000001  -0.000265   0.401320   0.006186   0.000003   5.057382
[...]
    43  O    0.000002   0.000000   0.000000   0.000000  -0.000000  -0.000007
    44  H   -0.000000   0.000000  -0.000000  -0.000000   0.000000  -0.000004
              37         38         39         40         41         42
     1  H    0.000000   0.000000  -0.000000   0.000000  -0.000000  -0.000000
     2  C    0.000000   0.000000  -0.000000   0.000004   0.000000  -0.000000
     3  C   -0.000000  -0.000000   0.000000  -0.000001  -0.000001  -0.000000
     4  C   -0.000000   0.000000   0.000017  -0.000045  -0.000000  -0.000000
     5  H   -0.000000  -0.000000  -0.000000  -0.000000  -0.000000   0.000000
     6  C   -0.000022  -0.000003  -0.000000  -0.000003   0.000037  -0.000000
     7  H   -0.000000   0.000000   0.000003  -0.000011  -0.000000   0.000000
     8  C   -0.000064  -0.000015  -0.000452   0.000154   0.000000  -0.000000
     9  C    0.000101   0.000005   0.000000   0.000000  -0.000556  -0.000124
    10  N    0.000052   0.000004   0.000001  -0.000061   0.000002  -0.000000
    11  C    0.000073  -0.000014   0.012640  -0.076929   0.000000   0.000000
    12  C    0.000002   0.000000  -0.000000  -0.000000   0.012249  -0.000053
    13  N    0.000230  -0.000018  -0.000000  -0.000002   0.006366   0.001884
    14  Ru  -0.004497  -0.000233   0.000336  -0.001764   0.001860  -0.000219
    15  C    0.000004   0.000001  -0.058601   0.063379   0.000000   0.000000
    16  N   -0.000115   0.000088   0.000093  -0.049772   0.000000  -0.000000
    17  H   -0.000000   0.000000  -0.000000   0.000000  -0.000189  -0.000000
    18  C    0.000002  -0.000000   0.000000  -0.000000  -0.055152   0.001452
    19  C    0.000870   0.000021   0.000000  -0.000000  -0.067731  -0.161946
    20  O    0.018918   0.000193   0.000000  -0.000003   0.000439  -0.072403
    21  O   -0.000049  -0.000001   0.000002   0.002363  -0.000000   0.000013
    22  S   -0.011859  -0.010863   0.000000   0.000021  -0.000006   0.000029
    23  H   -0.000000  -0.000000  -0.010959   0.011071  -0.000000   0.000000
    24  C   -0.000000   0.000000   0.434602   0.309101   0.000000  -0.000000
    25  C   -0.000038  -0.000008   0.012367   0.383482   0.000000   0.000000
    26  H   -0.000000   0.000000  -0.000000  -0.000000  -0.010348  -0.000002
    27  C   -0.000048  -0.000001  -0.000000  -0.000000   0.431671   0.014900
    28  C    0.000715   0.000013   0.000000   0.000001  -0.005648   0.766011
    29  C   -0.000066  -0.000001  -0.000232  -0.035922  -0.000000   0.000001
    30  C    0.004071  -0.005287   0.000000  -0.000000   0.000002  -0.000082
    31  C    0.348993   0.367156  -0.000000  -0.000021   0.000001   0.000054
    32  O    0.002278   0.003324   0.000000   0.000004  -0.000000   0.000000
    33  H   -0.000228   0.000005   0.000000  -0.000000  -0.000025   0.000005
    34  H    0.000070  -0.000078   0.000000  -0.000000   0.000001   0.000223
    35  H   -0.000029   0.006250  -0.000000  -0.000000  -0.000001   0.000003
    36  H   -0.007883  -0.011753  -0.000000   0.000031   0.000000  -0.000001
    37  H    0.566717  -0.010001   0.000000  -0.000001  -0.000003  -0.000393
    38  H   -0.010001   0.584490   0.000000   0.000000  -0.000000   0.000001
    39  H    0.000000   0.000000   0.655504  -0.064316   0.000000  -0.000000
    40  C   -0.000001   0.000000  -0.064316   5.039030   0.000000   0.000000
    41  H   -0.000003  -0.000000   0.000000   0.000000   0.660073   0.014200
    42  O   -0.000393   0.000001  -0.000000   0.000000   0.014200   7.739952
    43  O    0.000002  -0.000000  -0.000000   0.008020  -0.000000   0.000000
    44  H    0.000000  -0.000000  -0.010183   0.419505  -0.000000  -0.000000
              43         44
     1  H   -0.000000  -0.000000
     2  C    0.000000   0.000000
     3  C   -0.000000  -0.000000
     4  C   -0.000000  -0.000001
     5  H   -0.000000  -0.000000
     6  C   -0.000000   0.000000
     7  H   -0.000000  -0.000000
     8  C   -0.000002   0.000016
     9  C    0.000000   0.000000
    10  N    0.000000   0.000002
    11  C   -0.000089  -0.000253
    12  C   -0.000000   0.000000
    13  N    0.000000   0.000000
    14  Ru   0.004498   0.001009
    15  C   -0.000053   0.011068
    16  N    0.002215   0.006486
    17  H   -0.000000  -0.000000
    18  C    0.000000   0.000000
    19  C    0.000001  -0.000000
    20  O    0.000019  -0.000000
    21  O   -0.070650   0.000406
    22  S   -0.000003   0.000000
    23  H   -0.000000  -0.000205
    24  C    0.001074  -0.050546
    25  C   -0.141705  -0.060274
    26  H    0.000000  -0.000000
    27  C    0.000000  -0.000000
    28  C   -0.000009   0.000000
    29  C    0.739438  -0.004571
    30  C    0.000000   0.000000
    31  C    0.000002  -0.000000
    32  O    0.000000   0.000000
    33  H    0.000000  -0.000000
    34  H    0.000000  -0.000000
    35  H   -0.000000   0.000000
    36  H   -0.000007  -0.000004
    37  H    0.000002   0.000000
    38  H   -0.000000  -0.000000
    39  H   -0.000000  -0.010183
    40  C    0.008020   0.419505
    41  H   -0.000000  -0.000000
    42  O    0.000000  -0.000000
    43  O    7.748680   0.012087
    44  H    0.012087   0.659397
 Mulliken charges:
               1
     1  H    0.026225
     2  C    0.073764
     3  C   -0.021935
     4  C   -0.020241
     5  H    0.021252
     6  C    0.154251
     7  H    0.022934
     8  C    0.175897
     9  C    0.134176
    10  N   -0.253695
    11  C    0.143933
    12  C   -0.017525
    13  N   -0.212657
    14  Ru   0.193910
    15  C   -0.026311
    16  N   -0.226038
    17  H    0.023594
    18  C    0.081822
    19  C    0.020213
    20  O   -0.381584
    21  O   -0.391026
    22  S    0.459280
    23  H    0.025053
    24  C    0.070918
    25  C    0.043270
    26  H    0.029529
    27  C   -0.002405
    28  C    0.239705
    29  C    0.244401
    30  C   -0.041445
    31  C   -0.025383
    32  O   -0.544551
    33  H    0.097562
    34  H    0.093132
    35  H    0.081187
    36  H    0.096208
    37  H    0.092199
    38  H    0.076722
    39  H    0.029178
    40  C   -0.007314
    41  H    0.012757
    42  O   -0.303505
    43  O   -0.303519
    44  H    0.016062
 Sum of Mulliken charges =  -0.00000
 Mulliken charges with hydrogens summed into heavy atoms:
               1
     2  C    0.099989
     3  C   -0.000683
     4  C    0.002693
     6  C    0.154251
     8  C    0.175897
     9  C    0.134176
    10  N   -0.253695
    11  C    0.143933
    12  C    0.006069
    13  N   -0.212657
    14  Ru   0.193910
    15  C   -0.001258
    16  N   -0.226038
    18  C    0.111351
    19  C    0.020213
    20  O   -0.381584
    21  O   -0.391026
    22  S    0.459280
    24  C    0.100097
    25  C    0.043270
    27  C    0.010352
    28  C    0.239705
    29  C    0.244401
    30  C    0.230436
    31  C    0.239746
    32  O   -0.544551
    40  C    0.008748
    42  O   -0.303505
    43  O   -0.303519
 Electronic spatial extent (au):  <R**2>=           9168.2126
 Charge=             -0.0000 electrons
 Dipole moment (field-independent basis, Debye):
    X=              0.3677    Y=             19.1906    Z=              3.4600  Tot=             19.5035
 Quadrupole moment (field-independent basis, Debye-Ang):
   XX=           -148.8879   YY=           -206.1515   ZZ=           -182.7880
   XY=             11.5358   XZ=             -5.8968   YZ=            -26.4201
 Traceless Quadrupole moment (field-independent basis, Debye-Ang):
   XX=             30.3879   YY=            -26.8757   ZZ=             -3.5122
   XY=             11.5358   XZ=             -5.8968   YZ=            -26.4201
 Octapole moment (field-independent basis, Debye-Ang**2):
  XXX=            -65.4430  YYY=            234.2713  ZZZ=             68.3034  XYY=            -20.0160
  XXY=            116.2012  XXZ=            -30.0559  XZZ=             57.2496  YZZ=            -12.4510
  YYZ=             12.5729  XYZ=             17.7931
 Hexadecapole moment (field-independent basis, Debye-Ang**3):
 XXXX=          -5147.4603 YYYY=          -3980.5408 ZZZZ=          -1928.5321 XXXY=            179.0596
 XXXZ=           -130.1405 YYYX=             -9.0908 YYYZ=           -236.9706 ZZZX=             64.4841
 ZZZY=            -91.0462 XXYY=          -1831.8613 XXZZ=          -1351.3095 YYZZ=          -1082.9244
 XXYZ=            -56.8153 YYXZ=           -139.0618 ZZXY=             15.4778
 N-N= 3.441989584790D+03 E-N=-1.099249629038D+04  KE= 1.691205878510D+03
 StAtR1:  DoIntr=F IAtCor=3 NETot=     222 Failed=F Sum=  2.80D+01 SumC=  0.00D+00
 There are a total of     1031258 grid points.
 ElSum from          density=      222.0000395286
 ElSum from atomic densities=      250.0003782095

 Hirshfeld populations at iteration   1 (CX, CA, CB, DipXYZ):
               1          2          3          4          5          6
     1  H    0.000000   0.467922   0.467922  -0.017477   0.165026  -0.008789
     2  C    0.000000   3.003039   3.003039  -0.004541   0.072699  -0.006265
     3  C    0.000000   3.007478   3.007478   0.048756   0.047515  -0.024538
     4  C    0.000000   3.006558   3.006558  -0.064577   0.032264   0.017581
     5  H    0.000000   0.467064   0.467064   0.119463   0.104333  -0.047338
     6  C    0.000000   2.971870   2.971870   0.002303  -0.031808  -0.007183
     7  H    0.000000   0.466971   0.466971  -0.139862   0.078487   0.040782
     8  C    0.000000   2.971335   2.971335  -0.001489  -0.016353  -0.003886
     9  C    0.000000   2.969315   2.969315  -0.025507  -0.006617   0.000856
    10  N    0.000000   3.529555   3.529555  -0.008855   0.104580  -0.006030
    11  C    0.000000   2.971152   2.971152   0.017121  -0.001210   0.018988
    12  C    0.000000   3.004766   3.004766   0.012935   0.067452  -0.020637
    13  N    0.000000   3.533308   3.533308   0.088571   0.040232  -0.034807
    14  Ru   0.000000   7.878732   7.878732   0.016383  -0.100653  -0.093935
    15  C    0.000000   3.008929   3.008929  -0.030412   0.062108   0.013269
    16  N    0.000000   3.537372   3.537372  -0.107331   0.021112  -0.010104
    17  H    0.000000   0.466508   0.466508   0.032631   0.153693  -0.052393
    18  C    0.000000   2.999414   2.999414   0.065890   0.020948  -0.023686
    19  C    0.000000   2.975553   2.975553  -0.025308  -0.010845   0.006796
    20  O    0.000000   4.154985   4.154985   0.104838   0.088429  -0.049389
    21  O    0.000000   4.157639   4.157639  -0.136832   0.006295   0.099204
    22  S    0.000000   7.811150   7.811150   0.058178   0.010346   0.171525
    23  H    0.000000   0.467862   0.467862  -0.078403   0.144799   0.012259
    24  C    0.000000   3.002023   3.002023  -0.074525  -0.000179   0.003516
    25  C    0.000000   2.977620   2.977620   0.026317  -0.008694   0.012641
    26  H    0.000000   0.467481   0.467481   0.148682   0.051596  -0.052223
    27  C    0.000000   3.006113   3.006113   0.060609  -0.027961  -0.005344
    28  C    0.000000   2.921691   2.921691  -0.009407   0.046732  -0.015538
    29  C    0.000000   2.921711   2.921711  -0.008486   0.035673   0.030073
    30  C    0.000000   3.033238   3.033238   0.022712   0.005514   0.031507
    31  C    0.000000   3.031925   3.031925  -0.001448  -0.014355   0.038248
    32  O    0.000000   4.194048   4.194048   0.102298  -0.122535  -0.037376
    33  H    0.000000   0.472732   0.472732   0.051673   0.130441  -0.057714
    34  H    0.000000   0.471746   0.471746   0.107467  -0.108196  -0.004733
    35  H    0.000000   0.468174   0.468174   0.019570   0.040425   0.157538
    36  H    0.000000   0.469337   0.469337  -0.154236  -0.051925   0.003531
    37  H    0.000000   0.474081   0.474081   0.077739  -0.116594   0.000878
    38  H    0.000000   0.469302   0.469302   0.027439   0.031572   0.156243
    39  H    0.000000   0.468616   0.468616  -0.164051   0.015114  -0.008068
    40  C    0.000000   3.010396   3.010396  -0.051765  -0.040281  -0.016560
    41  H    0.000000   0.470249   0.470249   0.133134  -0.086325  -0.003621
    42  O    0.000000   4.185148   4.185148  -0.084601   0.123978  -0.019085
    43  O    0.000000   4.185111   4.185111   0.029100   0.136664   0.053660
    44  H    0.000000   0.470804   0.470804  -0.098628  -0.113264  -0.053570
       Tot   0.000000 111.000020 111.000020   0.086066   0.980232   0.206281

 Dip from Atomic Chgs              0.058408   6.569939   1.155050
         Total Dipole              0.144474   7.550171   1.361331

 Hirshfeld charges, spin densities, dipoles, and CM5 charges using IRadAn=      5:
              Q-H        S-H        Dx         Dy         Dz        Q-CM5   
     1  H    0.064156   0.000000  -0.017477   0.165026  -0.008789   0.119137
     2  C   -0.006078   0.000000  -0.004541   0.072699  -0.006265  -0.058072
     3  C   -0.014956   0.000000   0.048756   0.047515  -0.024538  -0.061057
     4  C   -0.013115   0.000000  -0.064577   0.032264   0.017581  -0.059076
     5  H    0.065871   0.000000   0.119463   0.104333  -0.047338   0.122258
     6  C    0.056260   0.000000   0.002303  -0.031808  -0.007183   0.120745
     7  H    0.066057   0.000000  -0.139862   0.078487   0.040782   0.122320
     8  C    0.057330   0.000000  -0.001489  -0.016353  -0.003886   0.124073
     9  C    0.061371   0.000000  -0.025507  -0.006617   0.000856   0.126616
    10  N   -0.059109   0.000000  -0.008855   0.104580  -0.006030  -0.373770
    11  C    0.057696   0.000000   0.017121  -0.001210   0.018988   0.124795
    12  C   -0.009531   0.000000   0.012935   0.067452  -0.020637  -0.055671
    13  N   -0.066616   0.000000   0.088571   0.040232  -0.034807  -0.373496
    14  Ru   0.242535   0.000000   0.016383  -0.100653  -0.093935   0.867539
    15  C   -0.017859   0.000000  -0.030412   0.062108   0.013269  -0.063800
    16  N   -0.074744   0.000000  -0.107331   0.021112  -0.010104  -0.366680
    17  H    0.066984   0.000000   0.032631   0.153693  -0.052393   0.123265
    18  C    0.001171   0.000000   0.065890   0.020948  -0.023686  -0.050620
    19  C    0.048894   0.000000  -0.025308  -0.010845   0.006796   0.118350
    20  O   -0.309970   0.000000   0.104838   0.088429  -0.049389  -0.395024
    21  O   -0.315279   0.000000  -0.136832   0.006295   0.099204  -0.401693
    22  S    0.377701   0.000000   0.058178   0.010346   0.171525   0.289316
    23  H    0.064276   0.000000  -0.078403   0.144799   0.012259   0.120500
    24  C   -0.004045   0.000000  -0.074525  -0.000179   0.003516  -0.055832
    25  C    0.044761   0.000000   0.026317  -0.008694   0.012641   0.113416
    26  H    0.065038   0.000000   0.148682   0.051596  -0.052223   0.119924
    27  C   -0.012226   0.000000   0.060609  -0.027961  -0.005344  -0.057325
    28  C    0.156619   0.000000  -0.009407   0.046732  -0.015538   0.220668
    29  C    0.156578   0.000000  -0.008486   0.035673   0.030073   0.220140
    30  C   -0.066477   0.000000   0.022712   0.005514   0.031507  -0.196667
    31  C   -0.063850   0.000000  -0.001448  -0.014355   0.038248  -0.195031
    32  O   -0.388095   0.000000   0.102298  -0.122535  -0.037376  -0.436893
    33  H    0.054536   0.000000   0.051673   0.130441  -0.057714   0.111059
    34  H    0.056508   0.000000   0.107467  -0.108196  -0.004733   0.112696
    35  H    0.063653   0.000000   0.019570   0.040425   0.157538   0.117803
    36  H    0.061327   0.000000  -0.154236  -0.051925   0.003531   0.116148
    37  H    0.051838   0.000000   0.077739  -0.116594   0.000878   0.110010
    38  H    0.061397   0.000000   0.027439   0.031572   0.156243   0.115249
    39  H    0.062767   0.000000  -0.164051   0.015114  -0.008068   0.117567
    40  C   -0.020791   0.000000  -0.051765  -0.040281  -0.016560  -0.065838
    41  H    0.059503   0.000000   0.133134  -0.086325  -0.003621   0.117467
    42  O   -0.370297   0.000000  -0.084601   0.123978  -0.019085  -0.410565
    43  O   -0.370221   0.000000   0.029100   0.136664   0.053660  -0.409864
    44  H    0.058392   0.000000  -0.098628  -0.113264  -0.053570   0.115871
       Tot  -0.000040   0.000000   0.086066   0.980232   0.206281  -0.000040
 Hirshfeld charges with hydrogens summed into heavy atoms:
              Q-H       Q-CM5   
     2  C    0.058078   0.061065
     3  C    0.050915   0.061201
     4  C    0.052942   0.063244
     6  C    0.056260   0.120745
     8  C    0.057330   0.124073
     9  C    0.061371   0.126616
    10  N   -0.059109  -0.373770
    11  C    0.057696   0.124795
    12  C    0.057453   0.067593
    13  N   -0.066616  -0.373496
    14  Ru   0.242535   0.867539
    15  C    0.046417   0.056701
    16  N   -0.074744  -0.366680
    18  C    0.066210   0.069304
    19  C    0.048894   0.118350
    20  O   -0.309970  -0.395024
    21  O   -0.315279  -0.401693
    22  S    0.377701   0.289316
    24  C    0.058722   0.061735
    25  C    0.044761   0.113416
    27  C    0.047277   0.060141
    28  C    0.156619   0.220668
    29  C    0.156578   0.220140
    30  C    0.108221   0.144892
    31  C    0.110712   0.146376
    32  O   -0.388095  -0.436893
    40  C    0.037601   0.050033
    42  O   -0.370297  -0.410565
    43  O   -0.370221  -0.409864
 
 EQQ=  0.00000000000     EQD=  0.00000000000     EDD= 0.176830983130E-01
 EQQ+QD+DD= 0.176830983130E-01
 
 No NMR shielding tensors so no spin-rotation constants.
 Leave Link  601 at Tue Oct  4 13:16:14 2022, MaxMem=   536870912 cpu:             277.0 elap:               8.8
 (Enter /sw/arch/Centos8/EB_production/2021/software/Gaussian/g16.c01/l9999.exe)
 Unable to Open any file for archive entry.
 1\1\GINC-TCN457\SP\RB3LYP\def2SVP\C19H15N3O5Ru1S1\MATTHAK\04-Oct-2022\
 0\\#P b3lyp/Def2SVP pop(Hirshfeld) SCRF(Solvent=Water) scf(tight)\\Gau
 ssian input prepared by ASE\\0,1\H,0,2.78524,2.363969,-1.154517\C,0,1.
 855735,1.840512,-0.926409\C,0,1.815136,0.440279,-0.997136\C,0,0.722368
 ,2.569177,-0.558772\H,0,2.70545,-0.126771,-1.268591\C,0,0.629274,-0.22
 1218,-0.681355\H,0,0.753877,3.657362,-0.497304\C,0,-0.46155,1.88018,-0
 .281252\C,0,0.420697,-1.678927,-0.537729\N,0,-0.470862,0.518702,-0.347
 349\C,0,-1.821738,2.412361,-0.091213\C,0,1.319991,-2.708898,-0.831567\
 N,0,-0.777505,-2.001726,0.023329\Ru,0,-1.995379,-0.455051,0.401028\C,0
 ,-2.269494,3.704852,-0.393854\N,0,-2.737534,1.421714,0.108618\H,0,2.28
 9073,-2.48593,-1.278415\C,0,0.960569,-4.028471,-0.533639\C,0,-1.124678
 ,-3.248023,0.35937\O,0,-2.980058,-2.175416,1.392649\O,0,-3.652123,-0.7
 00366,-0.928349\S,0,-1.090418,-0.012182,2.433491\H,0,-1.554817,4.51857
 ,-0.522765\C,0,-3.633389,3.910269,-0.619734\C,0,-3.991491,1.550861,-0.
 36104\H,0,1.653758,-4.838824,-0.765805\C,0,-0.269803,-4.310083,0.07553
 7\C,0,-2.451417,-3.324568,1.118226\C,0,-4.573433,0.212729,-0.797039\C,
 0,0.041337,-1.288562,3.036276\C,0,-2.424694,-0.12622,3.64281\O,0,-0.40
 1758,1.312379,2.616857\H,0,0.90147,-1.293322,2.355116\H,0,-0.466882,-2
 .260627,3.028591\H,0,0.352279,-1.003884,4.049507\H,0,-3.116503,0.68926
 8,3.397096\H,0,-2.912822,-1.100315,3.51622\H,0,-1.990877,0.009519,4.64
 2338\H,0,-4.00139,4.911502,-0.85077\C,0,-4.496948,2.804736,-0.68605\H,
 0,-0.567659,-5.324384,0.341946\O,0,-2.89376,-4.422588,1.439336\O,0,-5.
 754637,0.090583,-1.093904\H,0,-5.526343,2.893733,-1.035683\\Version=ES
 64L-G16RevC.01\State=1-A\HF=-1765.6162132\RMSD=7.082e-09\Dipole=6.9906
 854,3.1515344,0.2781228\Quadrupole=-8.5430914,7.1413774,1.401714,-25.4
 162341,-14.4749688,-4.2874297\PG=C01 [X(C19H15N3O5Ru1S1)]\\@
 The archive entry for this job was punched.


 CHILDREN YOU ARE VERY LITTLE,
 AND YOUR BONES ARE VERY BRITTLE;
 IF YOU WOULD GROW GREAT AND STATELY
 YOU MUST TRY TO WALK SEDATELY.
 YOU MUST STILL BE BRIGHT AND QUIET,
 AND CONTENT WITH SIMPLE DIET;
 AND REMAIN, THROUGH ALL BEWILD'RING
 INNOCENT AND HONEST CHILDREN.
     -- A CHILD'S GARDEN OF VERSE,
        ROBERT LOUIS STEVENSON
 Job cpu time:       0 days  2 hours 40 minutes 50.6 seconds.
 Elapsed time:       0 days  0 hours  5 minutes  5.0 seconds.
 File lengths (MBytes):  RWF=    544 Int=      0 D2E=      0 Chk=     24 Scr=     32
 Normal termination of Gaussian 16 at Tue Oct  4 13:16:15 2022.
