
Host: int1

Timers On : Thu Oct 13 09:48:35 2022
Timers Off: Thu Oct 13 09:48:36 2022

Wall Time:        0.97 seconds

                                                       Time (seconds)
Module                                       User      System        Wall        Calls

--------------------------------------------------------------------------------------

**************************************************************************************

Host: int1

Timers On : Thu Oct 13 09:50:27 2022
Timers Off: Thu Oct 13 09:50:28 2022

Wall Time:        0.85 seconds

                                                       Time (seconds)
Module                                       User      System        Wall        Calls

--------------------------------------------------------------------------------------

**************************************************************************************

Host: int1

Timers On : Thu Oct 13 09:50:59 2022
Timers Off: Thu Oct 13 09:51:00 2022

Wall Time:        0.68 seconds

                                                       Time (seconds)
Module                                       User      System        Wall        Calls

--------------------------------------------------------------------------------------

**************************************************************************************
