
Host: int1

Timers On : Thu Oct 13 09:27:00 2022
Timers Off: Thu Oct 13 09:27:03 2022

Wall Time:        2.22 seconds

                                                       Time (seconds)
Module                                       User      System        Wall        Calls

--------------------------------------------------------------------------------------

**************************************************************************************
