
Host: int1

Timers On : Wed Oct 12 15:09:26 2022
Timers Off: Wed Oct 12 15:09:29 2022

Wall Time:        2.99 seconds

                                                       Time (seconds)
Module                                       User      System        Wall        Calls

--------------------------------------------------------------------------------------

**************************************************************************************

Host: int1

Timers On : Wed Oct 12 15:09:37 2022
Timers Off: Wed Oct 12 15:09:39 2022

Wall Time:        2.05 seconds

                                                       Time (seconds)
Module                                       User      System        Wall        Calls

--------------------------------------------------------------------------------------

**************************************************************************************

Host: int1

Timers On : Wed Oct 12 15:10:28 2022
Timers Off: Wed Oct 12 15:10:30 2022

Wall Time:        2.13 seconds

                                                       Time (seconds)
Module                                       User      System        Wall        Calls

--------------------------------------------------------------------------------------

**************************************************************************************

Host: int1

Timers On : Wed Oct 12 15:11:01 2022
Timers Off: Wed Oct 12 15:11:03 2022

Wall Time:        2.28 seconds

                                                       Time (seconds)
Module                                       User      System        Wall        Calls

--------------------------------------------------------------------------------------

**************************************************************************************

Host: int1

Timers On : Wed Oct 12 15:11:33 2022
Timers Off: Wed Oct 12 15:11:35 2022

Wall Time:        2.53 seconds

                                                       Time (seconds)
Module                                       User      System        Wall        Calls

--------------------------------------------------------------------------------------

**************************************************************************************

Host: int1

Timers On : Wed Oct 12 15:12:40 2022
Timers Off: Wed Oct 12 15:12:42 2022

Wall Time:        2.10 seconds

                                                       Time (seconds)
Module                                       User      System        Wall        Calls

--------------------------------------------------------------------------------------

**************************************************************************************

Host: int1

Timers On : Wed Oct 12 15:12:52 2022
Timers Off: Wed Oct 12 15:12:54 2022

Wall Time:        1.92 seconds

                                                       Time (seconds)
Module                                       User      System        Wall        Calls

--------------------------------------------------------------------------------------

**************************************************************************************

Host: int1

Timers On : Wed Oct 12 15:13:34 2022
Timers Off: Wed Oct 12 15:13:35 2022

Wall Time:        1.71 seconds

                                                       Time (seconds)
Module                                       User      System        Wall        Calls

--------------------------------------------------------------------------------------

**************************************************************************************
