
Host: tcn363

Timers On : Mon Oct 17 21:32:06 2022
Timers Off: Mon Oct 17 21:32:08 2022

Wall Time:        1.46 seconds

                                                       Time (seconds)
Module                                       User      System        Wall        Calls

--------------------------------------------------------------------------------------

**************************************************************************************
