
Host: int1

Timers On : Wed Oct 12 15:08:55 2022
Timers Off: Wed Oct 12 15:08:58 2022

Wall Time:        3.36 seconds

                                                       Time (seconds)
Module                                       User      System        Wall        Calls

--------------------------------------------------------------------------------------

**************************************************************************************

Host: int1

Timers On : Wed Oct 12 15:56:10 2022
Timers Off: Wed Oct 12 15:56:12 2022

Wall Time:        1.80 seconds

                                                       Time (seconds)
Module                                       User      System        Wall        Calls

--------------------------------------------------------------------------------------

**************************************************************************************

Host: int1

Timers On : Fri Oct 14 13:49:03 2022
Timers Off: Fri Oct 14 13:49:06 2022

Wall Time:        3.26 seconds

                                                       Time (seconds)
Module                                       User      System        Wall        Calls

--------------------------------------------------------------------------------------

**************************************************************************************

Host: int1

Timers On : Fri Oct 14 13:49:42 2022
Timers Off: Fri Oct 14 13:49:43 2022

Wall Time:        1.53 seconds

                                                       Time (seconds)
Module                                       User      System        Wall        Calls

--------------------------------------------------------------------------------------

**************************************************************************************

Host: int3

Timers On : Mon Oct 17 14:07:03 2022
Timers Off: Mon Oct 17 14:07:05 2022

Wall Time:        1.58 seconds

                                                       Time (seconds)
Module                                       User      System        Wall        Calls

--------------------------------------------------------------------------------------

**************************************************************************************
