
Host: int1

Timers On : Mon Oct 10 09:51:19 2022
Timers Off: Mon Oct 10 09:51:22 2022

Wall Time:        2.92 seconds

                                                       Time (seconds)
Module                                       User      System        Wall        Calls

--------------------------------------------------------------------------------------

**************************************************************************************

Host: int1

Timers On : Mon Oct 10 09:51:27 2022
Timers Off: Mon Oct 10 09:51:29 2022

Wall Time:        1.90 seconds

                                                       Time (seconds)
Module                                       User      System        Wall        Calls

--------------------------------------------------------------------------------------

**************************************************************************************

Host: int1

Timers On : Mon Oct 10 09:51:36 2022
Timers Off: Mon Oct 10 09:51:37 2022

Wall Time:        1.70 seconds

                                                       Time (seconds)
Module                                       User      System        Wall        Calls

--------------------------------------------------------------------------------------

**************************************************************************************

Host: int3

Timers On : Mon Oct 10 09:56:04 2022
Timers Off: Mon Oct 10 09:56:10 2022

Wall Time:        6.45 seconds

                                                       Time (seconds)
Module                                       User      System        Wall        Calls

--------------------------------------------------------------------------------------

**************************************************************************************

Host: int3

Timers On : Mon Oct 10 09:56:51 2022
Timers Off: Mon Oct 10 09:56:54 2022

Wall Time:        2.78 seconds

                                                       Time (seconds)
Module                                       User      System        Wall        Calls

--------------------------------------------------------------------------------------

**************************************************************************************

Host: int3

Timers On : Mon Oct 10 10:12:17 2022
Timers Off: Mon Oct 10 10:12:18 2022

Wall Time:        1.69 seconds

                                                       Time (seconds)
Module                                       User      System        Wall        Calls

--------------------------------------------------------------------------------------

**************************************************************************************
