
Host: tcn46

Timers On : Mon Oct 17 18:34:33 2022
Timers Off: Mon Oct 17 18:38:07 2022

Wall Time:      214.31 seconds

                                                       Time (seconds)
Module                                       User      System        Wall        Calls

--------------------------------------------------------------------------------------

**************************************************************************************
