
Host: tcn254

Timers On : Mon Oct 10 09:16:19 2022
Timers Off: Tue Oct 11 08:32:18 2022

Wall Time:    83758.80 seconds

                                                       Time (seconds)
Module                                       User      System        Wall        Calls

--------------------------------------------------------------------------------------

**************************************************************************************
